                  Welcome to Q-Chem
     A Quantum Leap Into The Future Of Chemistry


 Q-Chem 5.2 (devel), Q-Chem, Inc., Pleasanton, CA (2019)

 Yihan Shao,  Zhengting Gan,  E. Epifanovsky,  A. T. B. Gilbert,  M. Wormit,  
 J. Kussmann,  A. W. Lange,  A. Behn,  Jia Deng,  Xintian Feng,  D. Ghosh,  
 M. Goldey,  P. R. Horn,  L. D. Jacobson,  I. Kaliman,  T. Kus,  A. Landau,  
 Jie Liu,  E. I. Proynov,  R. M. Richard,  R. P. Steele,  E. J. Sundstrom,  
 H. L. Woodcock III,  P. M. Zimmerman,  D. Zuev,  B. Albrecht,  E. Alguire,  
 S. A. Baeppler,  D. Barton,  Z. Benda,  Y. A. Bernard,  E. J. Berquist,  
 K. B. Bravaya,  H. Burton,  D. Casanova,  Chun-Min Chang,  Yunqing Chen,  
 A. Chien,  K. D. Closser,  M. P. Coons,  S. Coriani,  S. Dasgupta,  
 A. L. Dempwolff,  M. Diedenhofen,  Hainam Do,  R. G. Edgar,  Po-Tung Fang,  
 S. Faraji,  S. Fatehi,  Qingguo Feng,  K. D. Fenk,  J. Fosso-Tande,  
 J. Gayvert,  Qinghui Ge,  A. Ghysels,  G. Gidofalvi,  J. Gomes,  
 J. Gonthier,  A. Gunina,  D. Hait,  M. W. D. Hanson-Heine,  
 P. H. P. Harbach,  A. W. Hauser,  M. F. Herbst,  J. E. Herr,  
 E. G. Hohenstein,  Z. C. Holden,  Kerwin Hui,  B. C. Huynh,  T.-C. Jagau,  
 Hyunjun Ji,  B. Kaduk,  K. Khistyaev,  Jaehoon Kim,  P. Klunzinger,  K. Koh,  
 D. Kosenkov,  L. Koulias,  T. Kowalczyk,  C. M. Krauter,  A. Kunitsa,  
 Ka Un Lao,  A. Laurent,  K. V. Lawler,  Joonho Lee,  D. Lefrancois,  
 S. Lehtola,  D. S. Levine,  Yi-Pei Li,  You-Sheng Lin,  Fenglai Liu,  
 E. Livshits,  A. Luenser,  P. Manohar,  E. Mansoor,  S. F. Manzer,  
 Shan-Ping Mao,  Yuezhi Mao,  N. Mardirossian,  A. V. Marenich,  
 T. Markovich,  L. A. Martinez-Martinez,  S. A. Maurer,  N. J. Mayhall,  
 S. C. McKenzie,  J.-M. Mewes,  A. F. Morrison,  J. W. Mullinax,  K. Nanda,  
 T. S. Nguyen-Beck,  R. Olivares-Amaya,  J. A. Parkhill,  T. M. Perrine,  
 F. Plasser,  P. Pokhilko,  S. Prager,  A. Prociuk,  E. Ramos,  D. R. Rehn,  
 F. Rob,  M. Scheurer,  M. Schneider,  N. Sergueev,  S. M. Sharada,  
 S. Sharma,  D. W. Small,  T. Stauch,  T. Stein,  Yu-Chuan Su,  
 A. J. W. Thom,  A. Tkatchenko,  T. Tsuchimochi,  N. M. Tubman,  L. Vogt,  
 M. L. Vidal,  O. Vydrov,  M. A. Watson,  J. Wenzel,  M. de Wergifosse,  
 T. A. Wesolowski,  A. White,  J. Witte,  A. Yamada,  Jun Yang,  K. Yao,  
 S. Yeganeh,  S. R. Yost,  Zhi-Qiang You,  A. Zech,  Igor Ying Zhang,  
 Xing Zhang,  Yan Zhao,  Ying Zhu,  B. R. Brooks,  G. K. L. Chan,  
 C. J. Cramer,  M. S. Gordon,  W. J. Hehre,  A. Klamt,  M. W. Schmidt,  
 C. D. Sherrill,  D. G. Truhlar,  A. Aspuru-Guzik,  R. Baer,  A. T. Bell,  
 N. A. Besley,  Jeng-Da Chai,  A. E. DePrince, III,  R. A. DiStasio Jr.,  
 A. Dreuw,  B. D. Dunietz,  T. R. Furlani,  Chao-Ping Hsu,  Yousung Jung,  
 Jing Kong,  D. S. Lambrecht,  WanZhen Liang,  C. Ochsenfeld,  
 V. A. Rassolov,  L. V. Slipchenko,  J. E. Subotnik,  T. Van Voorhis,  
 J. M. Herbert,  A. I. Krylov,  P. M. W. Gill,  M. Head-Gordon

 Contributors to earlier versions of Q-Chem not listed above: 
 R. D. Adamson,  B. Austin,  J. Baker,  G. J. O. Beran,  K. Brandhorst,  
 S. T. Brown,  E. F. C. Byrd,  A. K. Chakraborty,  C.-L. Cheng,  
 Siu Hung Chien,  D. M. Chipman,  D. L. Crittenden,  H. Dachsel,  
 R. J. Doerksen,  A. D. Dutoi,  L. Fusti-Molnar,  W. A. Goddard III,  
 A. Golubeva-Zadorozhnaya,  S. R. Gwaltney,  G. Hawkins,  A. Heyden,  
 S. Hirata,  G. Kedziora,  F. J. Keil,  C. Kelley,  Jihan Kim,  R. A. King,  
 R. Z. Khaliullin,  P. P. Korambath,  W. Kurlancheek,  A. M. Lee,  M. S. Lee,  
 S. V. Levchenko,  Ching Yeh Lin,  D. Liotard,  R. C. Lochan,  I. Lotan,  
 P. E. Maslen,  N. Nair,  D. P. O'Neill,  D. Neuhauser,  E. Neuscamman,  
 C. M. Oana,  R. Olson,  B. Peters,  R. Peverati,  P. A. Pieniazek,  
 Y. M. Rhee,  J. Ritchie,  M. A. Rohrdanz,  E. Rosta,  N. J. Russ,  
 H. F. Schaefer III,  N. E. Schultz,  N. Shenvi,  A. C. Simmonett,  A. Sodt,  
 D. Stuck,  K. S. Thanthiriwatte,  V. Vanovschi,  Tao Wang,  A. Warshel,  
 C. F. Williams,  Q. Wu,  X. Xu,  W. Zhang

 Please cite Q-Chem as follows:
 Y. Shao et al., Mol. Phys. 113, 184-215 (2015)
 DOI: 10.1080/00268976.2014.952696

 Q-Chem 5.2.0 for Intel X86 EM64T Linux

 Parts of Q-Chem use Armadillo 8.300.2 (Tropical Shenanigans).
 http://arma.sourceforge.net/

Compilation information
-----------------------

 SVN revision             | 31250
 SVN branch               | trunk
 Last SVN revision        | 31248
 Last SVN author          | afmorrison
 Hostname                 | login1.crc.pitt.edu
 User                     | erb74
 System                   | Linux-3.10.0-957.1.3.el7.x86_64
 Processor                | x86_64
 Compiler                 | Intel
 C compiler version       | 18.0.2.20180210
 CXX compiler version     | 18.0.2.20180210
 Fortran compiler version | 18.0.2.20180210
 Configuration time       | 2019-03-30 21:16:52


 Q-Chem begins on Sat Nov 28 10:55:32 2020  

Host: smp-n24.crc.pitt.edu
0

     Scratch files written to /scratch/slurm-2001482/edta6//
Symmetry turned off for PCM/SM12/SMD calculation

Checking the input file for inconsistencies... 	...done.

--------------------------------------------------------------
User input:
--------------------------------------------------------------
$molecule
-4 1
N        -0.0413476082   -0.0097195466   -0.0302620842
C        -0.0388987439    0.0555353972    1.4182459723
H         0.9766655645   -0.0976584627    1.7788906908
H        -0.3605482583    1.0455736393    1.7609271905
C         0.9414170791    0.9292799581   -0.5356910211
H         0.8779142597    0.9647213861   -1.6212699918
H         0.7428064705    1.9426126798   -0.1679013074
C        -1.3636863653    0.3925132072   -0.4972339960
H        -2.0887460737   -0.2549918151   -0.0145792824
H        -1.5725711172    1.4204353416   -0.1746035969
C        -0.8977744395   -0.9862775153    2.1228620657
O        -1.2173166836   -2.0395725942    1.5241188127
O        -1.1959253110   -0.7148005004    3.3161977307
C         2.3933309452    0.5903783465   -0.2253860124
O         2.7165534933   -0.5975406766    0.0087304198
O         3.1946057610    1.5603439967   -0.2758749860
C        -1.5090801488    0.2850006091   -2.0108714353
H        -1.1419756598    1.1919714782   -2.4833872638
H        -0.9034891866   -0.5462764692   -2.3650463503
N        -2.8791378174    0.0684935201   -2.4763316537
C        -3.3612058268   -1.2403084279   -2.0844283225
H        -2.5920066307   -1.9777936883   -2.3138524256
H        -3.5589799454   -1.3103692016   -1.0115144788
C        -3.7673219257    1.0791393529   -1.9274127190
H        -4.7705216677    0.9035768011   -2.3129795802
H        -3.8205757962    1.0156283600   -0.8387555482
C        -3.3965178548    2.5070456609   -2.3065431389
O        -3.0149206952    2.7390993387   -3.4792818219
O        -3.5443607931    3.3796697028   -1.4119679559
C        -4.6255418275   -1.7153651348   -2.7923304269
O        -5.0198124083   -1.1434544898   -3.8339573390
O        -5.1807701075   -2.7162174688   -2.2642598168
$end

$rem
 jobtype = opt
 method =  m05-2x
 basis = def2-tzvp
 solvent_method = smd
!purecart = 2111
 mem_static = 16000
 mem_total = 32000
 geom_opt_max_cycles = 600
 geom_opt_tol_gradient = 40
 geom_opt_tol_energy = 20
 geom_opt_tol_displacement = 100
 geom_opt_dmax = 10
 scf_convergence = 8
 max_scf_cycles = 10000
 xc_grid = 3
$end

--------------------------------------------------------------
 ----------------------------------------------------------------
             Standard Nuclear Orientation (Angstroms)
    I     Atom           X                Y                Z
 ----------------------------------------------------------------
    1      N      -0.0413476082    -0.0097195466    -0.0302620842
    2      C      -0.0388987439     0.0555353972     1.4182459723
    3      H       0.9766655645    -0.0976584627     1.7788906908
    4      H      -0.3605482583     1.0455736393     1.7609271905
    5      C       0.9414170791     0.9292799581    -0.5356910211
    6      H       0.8779142597     0.9647213861    -1.6212699918
    7      H       0.7428064705     1.9426126798    -0.1679013074
    8      C      -1.3636863653     0.3925132072    -0.4972339960
    9      H      -2.0887460737    -0.2549918151    -0.0145792824
   10      H      -1.5725711172     1.4204353416    -0.1746035969
   11      C      -0.8977744395    -0.9862775153     2.1228620657
   12      O      -1.2173166836    -2.0395725942     1.5241188127
   13      O      -1.1959253110    -0.7148005004     3.3161977307
   14      C       2.3933309452     0.5903783465    -0.2253860124
   15      O       2.7165534933    -0.5975406766     0.0087304198
   16      O       3.1946057610     1.5603439967    -0.2758749860
   17      C      -1.5090801488     0.2850006091    -2.0108714353
   18      H      -1.1419756598     1.1919714782    -2.4833872638
   19      H      -0.9034891866    -0.5462764692    -2.3650463503
   20      N      -2.8791378174     0.0684935201    -2.4763316537
   21      C      -3.3612058268    -1.2403084279    -2.0844283225
   22      H      -2.5920066307    -1.9777936883    -2.3138524256
   23      H      -3.5589799454    -1.3103692016    -1.0115144788
   24      C      -3.7673219257     1.0791393529    -1.9274127190
   25      H      -4.7705216677     0.9035768011    -2.3129795802
   26      H      -3.8205757962     1.0156283600    -0.8387555482
   27      C      -3.3965178548     2.5070456609    -2.3065431389
   28      O      -3.0149206952     2.7390993387    -3.4792818219
   29      O      -3.5443607931     3.3796697028    -1.4119679559
   30      C      -4.6255418275    -1.7153651348    -2.7923304269
   31      O      -5.0198124083    -1.1434544898    -3.8339573390
   32      O      -5.1807701075    -2.7162174688    -2.2642598168
 ----------------------------------------------------------------
 Nuclear Repulsion Energy =        1584.68487507 hartrees
 There are       77 alpha and       77 beta electrons
 Requested basis set is def2-TZVP
 There are 268 shells and 692 basis functions

 Total QAlloc Memory Limit  32000 MB
 Mega-Array Size     15641 MB
 MEM_STATIC part     16000 MB
 
 Citation of the SMD model:
 Marenich, A.V.; Cramer, C.J.; Truhlar, D.G.
 J. Phys. Chem. B 2009, 113, 6378-6396.
 iSolventCode=           1
 Solvent: water                                                           
 
 vradii
            1           2           3           4           5           6
    1   1.8900000   1.8500000   1.2000000   1.2000000   1.8500000   1.2000000
            7           8           9          10          11          12
    1   1.2000000   1.8500000   1.2000000   1.2000000   1.8500000   1.5200000
           13          14          15          16          17          18
    1   1.5200000   1.8500000   1.5200000   1.5200000   1.8500000   1.2000000
           19          20          21          22          23          24
    1   1.2000000   1.8900000   1.8500000   1.2000000   1.2000000   1.8500000
           25          26          27          28          29          30
    1   1.2000000   1.2000000   1.8500000   1.5200000   1.5200000   1.8500000
           31          32
    1   1.5200000   1.5200000
 Changing PCM_VDW_RADII to SMD_RADIUS
 Discretize the solute cavity surface with Lebedev spheres
	Using 110 Lebedev grid points for each H atom
	Using 194 Lebedev grid points for other atoms
	Atomic van der Waals radii will be scaled by 1.20
 Remove points where switching function is < 1.0e-08
 Keep 2483 surface tesserae and discard 2717 interior tesserae
 Molecular Surface Area = 282.996 Angst**2
 A cutoff of  1.0D-11 yielded  24019 shell pairs
 There are    148491 function pairs (    188855 Cartesian)
 Smallest overlap matrix eigenvalue = 7.21E-05

 Scale SEOQF with 1.000000e-02/1.000000e-01/1.000000e-01

 Standard Electronic Orientation quadrupole field applied
 Nucleus-field energy     =    -0.0000000374 hartrees
 Guess from superposition of atomic densities
 Warning:  Energy on first SCF cycle will be non-variational
 SAD guess density has 150.000000 electrons

 -----------------------------------------------------------------------
  General SCF calculation program by
  Eric Jon Sundstrom, Paul Horn, Yuezhi Mao, Dmitri Zuev, Alec White,
  David Stuck, Shaama M.S., Shane Yost, Joonho Lee, David Small,
  Daniel Levine, Susi Lehtola, Hugh Burton, Evgeny Epifanovsky
 -----------------------------------------------------------------------
 Exchange:     0.5600 Hartree-Fock + 1.0000 M05-2X
 Correlation:  1.0000 M05-2X
 Using SG-3 standard quadrature grid
 
 Citation of the SMD model:
 Marenich, A.V.; Cramer, C.J.; Truhlar, D.G.
 J. Phys. Chem. B 2009, 113, 6378-6396.
 iSolventCode=           1
 Solvent: water                                                           
 
 vradii
            1           2           3           4           5           6
    1   1.8900000   1.8500000   1.2000000   1.2000000   1.8500000   1.2000000
            7           8           9          10          11          12
    1   1.2000000   1.8500000   1.2000000   1.2000000   1.8500000   1.5200000
           13          14          15          16          17          18
    1   1.5200000   1.8500000   1.5200000   1.5200000   1.8500000   1.2000000
           19          20          21          22          23          24
    1   1.2000000   1.8900000   1.8500000   1.2000000   1.2000000   1.8500000
           25          26          27          28          29          30
    1   1.2000000   1.2000000   1.8500000   1.5200000   1.5200000   1.8500000
           31          32
    1   1.5200000   1.5200000
 using 16 threads for integral computing
 -------------------------------------------------------
 OpenMP Integral computing Module                
 Release: version 2.0, May 2017, Q-Chem Inc. Pleasanton 
 -------------------------------------------------------
 Required memory 34892 MB for running faster algorithm of ks_driver_exc_fxc::perform()
 A restricted SCF calculation will be
 performed using DIIS
 SCF converges when DIIS error is below 1.0e-08
 ---------------------------------------
  Cycle       Energy         DIIS error
 ---------------------------------------
    1   -1104.6146896516      2.18e-02  
    2   -1100.0197997461      3.51e-03  
    3   -1099.9507294152      4.08e-03  
    4   -1100.5799791293      2.61e-04  
    5   -1100.5833085495      1.26e-04  
    6   -1100.5841983576      2.28e-05  
    7   -1100.5842258833      1.21e-05  
    8   -1100.5842332537      3.02e-06  
    9   -1100.5842337115      1.24e-06  
   10   -1100.5842337851      4.79e-07  
   11   -1100.5842337953      1.39e-07  
   12   -1100.5842337964      2.45e-08  
   13   -1100.5842337965      5.43e-09  Convergence criterion met
 ---------------------------------------
 SCF time:   CPU 5119.55s  wall 394.00s 
(3)  G-ENP(liq) elect-nuc-pol free energy of system    -1100.584233796 a.u.
(4)  G-CDS(liq) cavity-dispersion-solvent structure 
     free energy                                                6.6082 kcal/mol
(6)  G-S(liq) free energy of system                    -1100.573703021 a.u.
 SCF   energy in the final basis set =    -1100.5842337965
 Total energy in the final basis set =    -1100.5737030214
 
 --------------------------------------------------------------
 
                    Orbital Energies (a.u.)
 --------------------------------------------------------------
 
 Alpha MOs
 -- Occupied --
-19.6107 -19.6107 -19.6104 -19.6102 -19.6096 -19.6089 -19.6082 -19.6075
-14.7675 -14.7665 -10.6560 -10.6555 -10.6554 -10.6551 -10.5681 -10.5675
-10.5664 -10.5652 -10.5652 -10.5619  -1.1594  -1.1589  -1.1576  -1.1573
 -1.0582  -1.0571  -1.0563  -1.0559  -1.0428  -1.0264  -0.8444  -0.8199
 -0.8190  -0.7739  -0.7126  -0.6701  -0.6100  -0.6040  -0.5943  -0.5913
 -0.5637  -0.5555  -0.5510  -0.5454  -0.5367  -0.5325  -0.5167  -0.5144
 -0.5038  -0.4996  -0.4985  -0.4971  -0.4849  -0.4819  -0.4766  -0.4699
 -0.4595  -0.4483  -0.4404  -0.4269  -0.4084  -0.4038  -0.3952  -0.3390
 -0.3388  -0.3378  -0.3367  -0.3275  -0.3266  -0.3251  -0.3243  -0.3233
 -0.3229  -0.3214  -0.3199  -0.2896  -0.2736
 -- Virtual --
  0.0839   0.0886   0.0925   0.1018   0.1055   0.1127   0.1186   0.1252
  0.1483   0.1541   0.1585   0.1628   0.1697   0.1779   0.1911   0.1935
  0.2046   0.2118   0.2172   0.2215   0.2288   0.2357   0.2394   0.2469
  0.2502   0.2557   0.2625   0.2751   0.2817   0.2948   0.3001   0.3031
  0.3127   0.3163   0.3207   0.3235   0.3267   0.3346   0.3495   0.3532
  0.3668   0.3711   0.3721   0.3782   0.3839   0.3921   0.4008   0.4072
  0.4109   0.4177   0.4270   0.4306   0.4327   0.4373   0.4461   0.4484
  0.4558   0.4716   0.4762   0.4836   0.4899   0.4946   0.4983   0.5021
  0.5059   0.5124   0.5151   0.5204   0.5247   0.5301   0.5342   0.5363
  0.5465   0.5476   0.5517   0.5578   0.5610   0.5672   0.5703   0.5747
  0.5776   0.5824   0.5878   0.5918   0.5981   0.6015   0.6040   0.6128
  0.6166   0.6227   0.6259   0.6304   0.6388   0.6515   0.6603   0.6636
  0.6755   0.6838   0.6893   0.6964   0.7032   0.7136   0.7218   0.7269
  0.7302   0.7430   0.7498   0.7532   0.7573   0.7704   0.7797   0.7857
  0.7955   0.8077   0.8128   0.8186   0.8252   0.8349   0.8550   0.8617
  0.8754   0.8797   0.8848   0.8855   0.9056   0.9176   0.9211   0.9319
  0.9518   0.9598   0.9700   0.9780   0.9902   1.0019   1.0113   1.0170
  1.0246   1.0379   1.0421   1.0619   1.0689   1.0734   1.0890   1.0987
  1.1022   1.1208   1.1287   1.1375   1.1396   1.1420   1.1526   1.1629
  1.1782   1.1961   1.2023   1.2132   1.2140   1.2334   1.2357   1.2472
  1.2637   1.2736   1.2892   1.3127   1.3180   1.3387   1.3562   1.3702
  1.3737   1.3897   1.3969   1.4064   1.4224   1.4488   1.4599   1.4888
  1.4964   1.5102   1.5151   1.5287   1.5336   1.5454   1.5517   1.5583
  1.5634   1.5705   1.5725   1.5874   1.5884   1.5955   1.6026   1.6054
  1.6103   1.6248   1.6296   1.6401   1.6476   1.6602   1.6632   1.6716
  1.6798   1.6842   1.6938   1.7038   1.7111   1.7171   1.7239   1.7301
  1.7357   1.7417   1.7532   1.7662   1.7779   1.7958   1.8093   1.8191
  1.8386   1.8496   1.8564   1.8675   1.8742   1.8803   1.8925   1.8930
  1.8981   1.9011   1.9086   1.9155   1.9298   1.9371   1.9551   1.9670
  1.9873   1.9883   2.0113   2.0294   2.0357   2.0440   2.0519   2.0579
  2.0674   2.0834   2.0892   2.0993   2.1077   2.1125   2.1237   2.1293
  2.1378   2.1466   2.1682   2.1942   2.2007   2.2109   2.2199   2.2251
  2.2333   2.2384   2.2414   2.2635   2.2771   2.2860   2.2892   2.2971
  2.3050   2.3085   2.3164   2.3219   2.3252   2.3413   2.3479   2.3542
  2.3659   2.3713   2.3851   2.3945   2.4006   2.4176   2.4261   2.4398
  2.4706   2.4772   2.4882   2.4959   2.4978   2.5277   2.5374   2.5391
  2.5577   2.5684   2.5817   2.5948   2.6030   2.6130   2.6262   2.6417
  2.6487   2.6658   2.6835   2.6872   2.7031   2.7076   2.7143   2.7262
  2.7344   2.7469   2.7564   2.7723   2.7762   2.7905   2.7962   2.8044
  2.8110   2.8203   2.8300   2.8386   2.8415   2.8443   2.8465   2.8512
  2.8640   2.8702   2.8993   2.9320   2.9503   2.9620   2.9739   2.9851
  2.9926   2.9980   3.0074   3.0103   3.0280   3.0304   3.0399   3.0426
  3.0497   3.0580   3.0651   3.0684   3.0827   3.0832   3.0871   3.0927
  3.0971   3.1058   3.1143   3.1206   3.1357   3.1468   3.1511   3.1616
  3.1625   3.1780   3.1856   3.1938   3.2040   3.2144   3.2264   3.2362
  3.2464   3.2560   3.2697   3.2836   3.2900   3.2985   3.3094   3.3172
  3.3196   3.3357   3.3397   3.3471   3.3559   3.3641   3.3696   3.3772
  3.3802   3.3887   3.4003   3.4021   3.4105   3.4114   3.4319   3.4424
  3.4490   3.4549   3.4608   3.4689   3.4732   3.4792   3.4991   3.5017
  3.5089   3.5199   3.5328   3.5394   3.5433   3.5527   3.5657   3.5798
  3.5819   3.5836   3.5940   3.5997   3.6078   3.6217   3.6407   3.6469
  3.6603   3.6634   3.6780   3.6828   3.6991   3.7147   3.7170   3.7400
  3.7478   3.7623   3.7936   3.8023   3.8460   3.8484   3.8547   3.8680
  3.8782   3.9040   3.9249   3.9354   3.9485   3.9611   3.9872   4.0101
  4.0123   4.0217   4.0370   4.0411   4.0445   4.0609   4.0759   4.0862
  4.1041   4.1416   4.1500   4.1706   4.1800   4.1945   4.3463   4.3590
  4.3706   4.3802   4.4146   4.4201   4.4393   4.4493   4.4802   4.4856
  4.4886   4.5140   4.5254   4.5560   4.5739   4.5851   4.6060   4.6184
  4.6439   4.6739   4.6928   4.7111   4.7441   4.7548   4.7939   4.8087
  4.8240   4.8292   4.8736   4.9060   4.9275   5.0196   5.0434   5.0512
  5.0837   5.1969   5.2006   5.2025   5.2030   5.2081   5.2141   5.2194
  5.2232   5.2289   5.2312   5.2320   5.2334   5.2339   5.2363   5.2381
  5.2413   5.2637   5.2914   5.3297   5.3440   5.3683   5.3730   5.3909
  5.4123   5.4245   5.4456   5.4545   5.4771   5.4887   5.5182   5.5224
  5.5451   5.5730   5.5800   5.5814   5.5824   5.5839   5.5875   5.6030
  5.6102   5.6517   5.6576   5.6634   5.6651   5.7389   5.7473   5.7797
  5.8006   5.8443   5.8619   5.8861   5.9163   5.9484   5.9693   6.0636
  6.0674   6.0707   6.0781   6.0889   6.0952   6.1043   6.1071   6.1586
  6.1602   6.1626   6.1639   6.3447   6.3493   6.3523   6.3588   6.3780
  6.3783   6.3794   6.3807   6.4338   6.4353   6.4404   6.4412   6.4566
  6.4629   6.4661   6.4706   6.5025   6.5083   6.5218   6.5270   6.7323
  6.7387   6.7434   6.7470   6.7789   6.7801   6.7833   6.7951   6.8596
  6.8617   6.8674   6.8690   6.9434   6.9447   6.9457   6.9470   7.1018
  7.1054   7.1089   7.1103   7.1134   7.1164   7.1249   7.1281   7.1906
  7.2036   7.2091   7.2103  22.7845  22.8020  22.8228  22.8511  22.8805
 22.9608  23.6518  23.6553  23.6615  23.6786  32.9205  32.9330  44.1063
 44.1103  44.1201  44.1348  44.1420  44.1557  44.1666  44.1894
 --------------------------------------------------------------
 
          Ground-State Mulliken Net Atomic Charges

     Atom                 Charge (a.u.)
  ----------------------------------------
      1 N                    -0.179764
      2 C                    -0.335684
      3 H                     0.171669
      4 H                     0.144939
      5 C                    -0.308801
      6 H                     0.178196
      7 H                     0.142689
      8 C                    -0.288855
      9 H                     0.191190
     10 H                     0.159499
     11 C                     0.292081
     12 O                    -0.598651
     13 O                    -0.624872
     14 C                     0.282073
     15 O                    -0.600597
     16 O                    -0.622498
     17 C                    -0.288818
     18 H                     0.180362
     19 H                     0.176041
     20 N                    -0.183200
     21 C                    -0.330062
     22 H                     0.175915
     23 H                     0.132556
     24 C                    -0.333583
     25 H                     0.167788
     26 H                     0.147536
     27 C                     0.306679
     28 O                    -0.606965
     29 O                    -0.616875
     30 C                     0.296315
     31 O                    -0.598554
     32 O                    -0.627747
  ----------------------------------------
  Sum of atomic charges =    -4.000000

 -----------------------------------------------------------------
                    Cartesian Multipole Moments
 -----------------------------------------------------------------
    Charge (ESU x 10^10)
               -19.2128
    Dipole Moment (Debye)
         X      32.0633      Y       0.4034      Z      16.8673
       Tot      36.2315
    Quadrupole Moments (Debye-Ang)
        XX    -370.4931     XY     -20.2520     YY    -228.8298
        XZ    -104.2296     YZ      28.6343     ZZ    -260.8016
    Octopole Moments (Debye-Ang^2)
       XXX    1316.7545    XXY      82.1907    XYY     502.5652
       YYY    -149.1260    XXZ     650.2226    XYZ       8.6071
       YYZ     264.1451    XZZ     673.8637    YZZ     -19.9240
       ZZZ     560.9979
    Hexadecapole Moments (Debye-Ang^3)
      XXXX  -11467.3010   XXXY   -1325.9682   XXYY   -2903.4116
      XYYY      16.9484   YYYY   -2952.4262   XXXZ   -4101.4420
      XXYZ    -301.0160   XYYZ   -1164.1138   YYYZ     548.4202
      XXZZ   -3598.5604   XYZZ    -180.1222   YYZZ   -1430.7502
      XZZZ   -2884.0892   YZZZ     502.7605   ZZZZ   -5161.9468
 -----------------------------------------------------------------
 Calculating analytic gradient of the SCF energy
 Gradient of CDS energy
            1           2           3           4           5           6
    1  -0.0005863   0.0007224   0.0002535  -0.0002435  -0.0001854  -0.0002239
    2   0.0025016  -0.0001288  -0.0001096   0.0003911  -0.0003509  -0.0000923
    3   0.0010426   0.0000836  -0.0001358  -0.0000512  -0.0008571  -0.0002897
            7           8           9          10          11          12
    1  -0.0001590  -0.0000806  -0.0001368   0.0000270  -0.0017266   0.0010235
    2   0.0002970  -0.0006225  -0.0001512   0.0003212  -0.0021750   0.0017964
    3   0.0003166   0.0006700  -0.0000304   0.0000680   0.0021375   0.0001033
           13          14          15          16          17          18
    1   0.0005361   0.0034628  -0.0013775  -0.0015244   0.0000290   0.0000792
    2  -0.0004863  -0.0003228   0.0014643  -0.0018090  -0.0002620   0.0003305
    3  -0.0022713   0.0003550  -0.0005081   0.0001283  -0.0030595   0.0000485
           19          20          21          22          23          24
    1   0.0007295  -0.0012382   0.0010465   0.0003815  -0.0000660  -0.0007152
    2  -0.0009341   0.0006512  -0.0002904  -0.0001639   0.0001703  -0.0002165
    3   0.0005379   0.0039720  -0.0008757  -0.0001430   0.0004151  -0.0002283
           25          26          27          28          29          30
    1  -0.0001671   0.0002665   0.0004102  -0.0004590   0.0002885  -0.0028594
    2  -0.0001750  -0.0000593   0.0033706  -0.0012945  -0.0015972  -0.0016706
    3  -0.0002349   0.0003929  -0.0007900   0.0016481  -0.0015722  -0.0013444
           31          32
    1   0.0014326   0.0010600
    2  -0.0003099   0.0019277
    3   0.0014488  -0.0009768
 Gradient of SCF Energy
            1           2           3           4           5           6
    1   0.0152711   0.0610708  -0.0896544   0.0249080   0.0248780   0.0053283
    2  -0.0662646   0.0681365   0.0154570  -0.0759649   0.1330887  -0.0037002
    3  -0.0223372   0.1264160  -0.0337478  -0.0272659  -0.0866710   0.0952646
            7           8           9          10          11          12
    1   0.0145064  -0.1761645   0.0684201   0.0185764  -0.0647354   0.0400894
    2  -0.0767415   0.0252587   0.0623310  -0.0765639  -0.1149114   0.1164368
    3  -0.0264345   0.1787895  -0.0397808  -0.0239011   0.0638598   0.0305038
           13          14          15          16          17          18
    1   0.0379910   0.1326719  -0.0623655  -0.0948761   0.1751587  -0.0347733
    2  -0.0004655  -0.0415856   0.1028495  -0.0721291   0.0313625  -0.0759583
    3  -0.1185984   0.0114806  -0.0200004   0.0019917  -0.1925995   0.0376571
           19          20          21          22          23          24
    1  -0.0509849  -0.0045629   0.0253265  -0.0669951   0.0130763  -0.1343081
    2   0.0686857  -0.0020519  -0.1239429   0.0683057   0.0026371   0.0348083
    3   0.0386226  -0.0380053   0.0806448   0.0176058  -0.0867928   0.0842738
           25          26          27          28          29          30
    1   0.0887336   0.0005794   0.0190610  -0.0281487   0.0157692  -0.1046675
    2   0.0136302   0.0041781   0.1341409  -0.0553540  -0.1023546  -0.0576512
    3   0.0355924  -0.0887829  -0.0541738   0.1103645  -0.0613156  -0.0763742
           31          32
    1   0.0606195   0.0702006
    2  -0.0308305   0.0951635
    3   0.1065605  -0.0228464
 Max gradient component =       1.926E-01
 RMS gradient           =       7.521E-02
 Computing fast CPCM-SWIG gradient
 Updating gradient with PCM contributions...
 -- total gradient after adding PCM contribution --
---------------------------------------------------
  Atom         X              Y              Z     
---------------------------------------------------
   1      -0.000293       0.000229      -0.000129
   2      -0.000079       0.000145      -0.000790
   3      -0.000396       0.000126      -0.000796
   4      -0.000020      -0.000571      -0.000950
   5      -0.000791      -0.000339       0.000251
   6      -0.000672      -0.000300       0.000701
   7      -0.000420      -0.001019       0.000130
   8      -0.000020      -0.000101      -0.000158
   9       0.000298       0.000180      -0.000647
  10       0.000230      -0.000701      -0.000618
  11       0.000137       0.000573      -0.000923
  12       0.000184       0.001078      -0.000581
  13       0.000323       0.000205      -0.000862
  14      -0.001004      -0.000066       0.000198
  15      -0.001037       0.000578       0.000101
  16      -0.000903      -0.000326       0.000014
  17      -0.000384       0.000119       0.000687
  18      -0.000495      -0.000230       0.000974
  19      -0.000548       0.000510       0.000887
  20       0.000048       0.000190       0.000741
  21       0.000342       0.000872       0.000272
  22      -0.000221       0.000942       0.000229
  23       0.000419       0.000837      -0.000515
  24       0.000740      -0.000626       0.000125
  25       0.000904      -0.000441       0.000027
  26       0.000974      -0.000494      -0.000585
  27       0.000468      -0.001063       0.000363
  28       0.000063      -0.000940       0.000795
  29       0.000247      -0.001115      -0.000141
  30       0.000607       0.000743       0.000373
  31       0.000664       0.000369       0.000827
  32       0.000634       0.000636      -0.000001
---------------------------------------------------
 Number of fixed atoms: 0
 Gradient time:  CPU 780.00 s  wall 90.37 s
 Geometry Optimization Parameters
   NAtoms,    NIC,     NZ,  NCons,   NDum,   NFix, NCnnct, MaxDiis
       32     218       0       0       0       0       0       0


** GEOMETRY OPTIMIZATION IN DELOCALIZED INTERNAL COORDINATES **
   Searching for a Minimum

   Optimization Cycle:   1

                       Coordinates (Angstroms)
     ATOM                X               Y               Z
      1  N        -0.0413476082   -0.0097195466   -0.0302620842
      2  C        -0.0388987439    0.0555353972    1.4182459723
      3  H         0.9766655645   -0.0976584627    1.7788906908
      4  H        -0.3605482583    1.0455736393    1.7609271905
      5  C         0.9414170791    0.9292799581   -0.5356910211
      6  H         0.8779142597    0.9647213861   -1.6212699918
      7  H         0.7428064705    1.9426126798   -0.1679013074
      8  C        -1.3636863653    0.3925132072   -0.4972339960
      9  H        -2.0887460737   -0.2549918151   -0.0145792824
     10  H        -1.5725711172    1.4204353416   -0.1746035969
     11  C        -0.8977744395   -0.9862775153    2.1228620657
     12  O        -1.2173166836   -2.0395725942    1.5241188127
     13  O        -1.1959253110   -0.7148005004    3.3161977307
     14  C         2.3933309452    0.5903783465   -0.2253860124
     15  O         2.7165534933   -0.5975406766    0.0087304198
     16  O         3.1946057610    1.5603439967   -0.2758749860
     17  C        -1.5090801488    0.2850006091   -2.0108714353
     18  H        -1.1419756598    1.1919714782   -2.4833872638
     19  H        -0.9034891866   -0.5462764692   -2.3650463503
     20  N        -2.8791378174    0.0684935201   -2.4763316537
     21  C        -3.3612058268   -1.2403084279   -2.0844283225
     22  H        -2.5920066307   -1.9777936883   -2.3138524256
     23  H        -3.5589799454   -1.3103692016   -1.0115144788
     24  C        -3.7673219257    1.0791393529   -1.9274127190
     25  H        -4.7705216677    0.9035768011   -2.3129795802
     26  H        -3.8205757962    1.0156283600   -0.8387555482
     27  C        -3.3965178548    2.5070456609   -2.3065431389
     28  O        -3.0149206952    2.7390993387   -3.4792818219
     29  O        -3.5443607931    3.3796697028   -1.4119679559
     30  C        -4.6255418275   -1.7153651348   -2.7923304269
     31  O        -5.0198124083   -1.1434544898   -3.8339573390
     32  O        -5.1807701075   -2.7162174688   -2.2642598168
   Point Group: c1    Number of degrees of freedom:    90


   Energy is  -1100.573703021


 Attempting to generate delocalized internal coordinates
 Initial Hessian constructed with Jon Baker's OPTIMIZE code

 90 Hessian modes will be used to form the next step
  Hessian Eigenvalues:
     0.005884    0.005931    0.005951    0.006109    0.006136    0.006151
     0.006193    0.006214    0.006242    0.007302    0.007852    0.008617
     0.009008    0.009034    0.009194    0.030657    0.035744    0.040947
     0.042682    0.046532    0.046676    0.046884    0.048014    0.054961
     0.055459    0.064389    0.064633    0.064699    0.065021    0.094708
     0.097370    0.102366    0.104463    0.104606    0.104783    0.128705
     0.130433    0.134370    0.135541    0.135635    0.135655    0.157548
     0.159479    0.164065    0.168218    0.219755    0.220352    0.220392
     0.220419    0.220542    0.220628    0.250000    0.250000    0.250000
     0.250000    0.250000    0.250000    0.250000    0.250000    0.298985
     0.299467    0.300600    0.300796    0.300898    0.339682    0.341108
     0.341361    0.344412    0.346046    0.348080    0.349299    0.349827
     0.350434    0.350739    0.352121    0.353586    0.365821    0.371004
     0.378378    0.382222    0.382477    0.384063    0.794772    0.797811
     0.799505    0.802054    0.814513    0.820765    0.821349    0.825002

 Minimum search - taking simple RFO step
 Searching for Lamda that Minimizes Along All modes
 Value Taken    Lamda =  -0.00231983
 Calculated Step too Large.  Step scaled by  0.039906
 Step Taken.  Stepsize is  0.010000

                             Maximum     Tolerance    Cnvgd?
         Gradient           0.010169      0.000040      NO
         Displacement       0.004102      0.000100      NO
         Energy change     *********      0.000000      NO


 New Cartesian Coordinates Obtained by Inverse Iteration

 Displacement from previous Coordinates is:  0.045151
 ----------------------------------------------------------------
             Standard Nuclear Orientation (Angstroms)
    I     Atom           X                Y                Z
 ----------------------------------------------------------------
    1      N      -0.0404641514    -0.0092635756    -0.0285648850
    2      C      -0.0370865904     0.0546643777     1.4202647547
    3      H       0.9789066501    -0.0979603273     1.7800591430
    4      H      -0.3591835970     1.0441590624     1.7642508438
    5      C       0.9428303013     0.9295092548    -0.5341296781
    6      H       0.8785587390     0.9659154366    -1.6196711312
    7      H       0.7454280602     1.9428276092    -0.1654973879
    8      C      -1.3632735737     0.3931175569    -0.4950887243
    9      H      -2.0880740096    -0.2542333104    -0.0117587066
   10      H      -1.5718745052     1.4211014148    -0.1722861816
   11      C      -0.8941353274    -0.9886190802     2.1253437127
   12      O      -1.2118612059    -2.0427653645     1.5270949193
   13      O      -1.1908814954    -0.7183038929     3.3193164641
   14      C       2.3950855002     0.5894718330    -0.2257235484
   15      O       2.7182452556    -0.5989634571     0.0059539963
   16      O       3.1969139340     1.5589896215    -0.2765741425
   17      C      -1.5100212817     0.2854068671    -2.0089710703
   18      H      -1.1426300399     1.1920638035    -2.4819744630
   19      H      -0.9046910094    -0.5460575814    -2.3633315409
   20      N      -2.8802676496     0.0690700576    -2.4750884572
   21      C      -3.3634563413    -1.2398105432    -2.0839332308
   22      H      -2.5936942174    -1.9774143062    -2.3113234504
   23      H      -3.5638934094    -1.3098527868    -1.0114739727
   24      C      -3.7695475525     1.0808788664    -1.9293412798
   25      H      -4.7722285809     0.9040661300    -2.3158162867
   26      H      -3.8245204103     1.0198915080    -0.8405885499
   27      C      -3.3996300124     2.5084514033    -2.3114151147
   28      O      -3.0183211562     2.7385022728    -3.4846665259
   29      O      -3.5505925195     3.3832580382    -1.4194628021
   30      C      -4.6259857071    -1.7156558253    -2.7949273865
   31      O      -5.0173204408    -1.1451180799    -3.8384352739
   32      O      -5.1820729748    -2.7166541981    -2.2679897165
 ----------------------------------------------------------------
 Nuclear Repulsion Energy =        1583.93954921 hartrees
 There are       77 alpha and       77 beta electrons
 Discretize the solute cavity surface with Lebedev spheres
	Using 110 Lebedev grid points for each H atom
	Using 194 Lebedev grid points for other atoms
	Atomic van der Waals radii will be scaled by 1.20
 Remove points where switching function is < 1.0e-08
 Keep 2485 surface tesserae and discard 2715 interior tesserae
 Molecular Surface Area = 283.181 Angst**2
 Applying Cartesian multipole field
    Component          Value
    ---------          -----
     (2,0,0)        1.00000E-12
     (0,2,0)        2.00000E-11
     (0,0,2)       -3.00000E-11
 Nucleus-field energy     =    -0.0000000375 hartrees
 Requested basis set is def2-TZVP
 There are 268 shells and 692 basis functions
 A cutoff of  1.0D-11 yielded  24007 shell pairs
 There are    148421 function pairs (    188758 Cartesian)
 Smallest overlap matrix eigenvalue = 7.24E-05
 Guess MOs from SCF MO coefficient file

 -----------------------------------------------------------------------
  General SCF calculation program by
  Eric Jon Sundstrom, Paul Horn, Yuezhi Mao, Dmitri Zuev, Alec White,
  David Stuck, Shaama M.S., Shane Yost, Joonho Lee, David Small,
  Daniel Levine, Susi Lehtola, Hugh Burton, Evgeny Epifanovsky
 -----------------------------------------------------------------------
 Exchange:     0.5600 Hartree-Fock + 1.0000 M05-2X
 Correlation:  1.0000 M05-2X
 Using SG-3 standard quadrature grid
 
 Citation of the SMD model:
 Marenich, A.V.; Cramer, C.J.; Truhlar, D.G.
 J. Phys. Chem. B 2009, 113, 6378-6396.
 iSolventCode=           1
 Solvent: water                                                           
 
 vradii
            1           2           3           4           5           6
    1   1.8900000   1.8500000   1.2000000   1.2000000   1.8500000   1.2000000
            7           8           9          10          11          12
    1   1.2000000   1.8500000   1.2000000   1.2000000   1.8500000   1.5200000
           13          14          15          16          17          18
    1   1.5200000   1.8500000   1.5200000   1.5200000   1.8500000   1.2000000
           19          20          21          22          23          24
    1   1.2000000   1.8900000   1.8500000   1.2000000   1.2000000   1.8500000
           25          26          27          28          29          30
    1   1.2000000   1.2000000   1.8500000   1.5200000   1.5200000   1.8500000
           31          32
    1   1.5200000   1.5200000
 using 16 threads for integral computing
 -------------------------------------------------------
 OpenMP Integral computing Module                
 Release: version 2.0, May 2017, Q-Chem Inc. Pleasanton 
 -------------------------------------------------------
 A restricted SCF calculation will be
 performed using Roothaan-Hall, DIIS
 SCF converges when DIIS error is below 1.0e-08
 ---------------------------------------
  Cycle       Energy         DIIS error
 ---------------------------------------
    1   -1101.3526579251      9.60e-05  Roothaan Step
 ---------------------------------------
  Cycle       Energy         DIIS error
 ---------------------------------------
    1   -1100.5830393367      1.31e-04  
    2   -1100.5835700554      1.31e-04  
    3   -1100.5843217268      2.21e-05  
    4   -1100.5843425388      8.92e-06  
    5   -1100.5843466032      2.20e-06  
    6   -1100.5843468388      1.57e-06  
    7   -1100.5843469435      2.86e-07  
    8   -1100.5843469488      9.25e-08  
    9   -1100.5843469493      3.43e-08  
   10   -1100.5843469494      1.01e-08  
   11   -1100.5843469494      3.99e-09  Convergence criterion met
 ---------------------------------------
 SCF time:   CPU 4946.18s  wall 376.00s 
(3)  G-ENP(liq) elect-nuc-pol free energy of system    -1100.584346949 a.u.
(4)  G-CDS(liq) cavity-dispersion-solvent structure 
     free energy                                                6.6236 kcal/mol
(6)  G-S(liq) free energy of system                    -1100.573791620 a.u.
 SCF   energy in the final basis set =    -1100.5843469494
 Total energy in the final basis set =    -1100.5737916197
 
 --------------------------------------------------------------
 
                    Orbital Energies (a.u.)
 --------------------------------------------------------------
 
 Alpha MOs
 -- Occupied --
-19.6107 -19.6107 -19.6104 -19.6102 -19.6096 -19.6089 -19.6082 -19.6076
-14.7676 -14.7666 -10.6560 -10.6555 -10.6555 -10.6551 -10.5681 -10.5676
-10.5665 -10.5654 -10.5653 -10.5620  -1.1594  -1.1589  -1.1576  -1.1573
 -1.0581  -1.0571  -1.0563  -1.0559  -1.0426  -1.0262  -0.8444  -0.8198
 -0.8190  -0.7738  -0.7125  -0.6701  -0.6099  -0.6039  -0.5943  -0.5913
 -0.5636  -0.5554  -0.5510  -0.5454  -0.5367  -0.5325  -0.5167  -0.5143
 -0.5038  -0.4996  -0.4985  -0.4971  -0.4849  -0.4820  -0.4766  -0.4698
 -0.4595  -0.4482  -0.4404  -0.4269  -0.4084  -0.4038  -0.3953  -0.3390
 -0.3388  -0.3378  -0.3368  -0.3275  -0.3266  -0.3251  -0.3243  -0.3233
 -0.3229  -0.3214  -0.3200  -0.2895  -0.2736
 -- Virtual --
  0.0838   0.0886   0.0923   0.1018   0.1055   0.1127   0.1187   0.1251
  0.1482   0.1541   0.1585   0.1628   0.1696   0.1778   0.1910   0.1934
  0.2045   0.2117   0.2171   0.2215   0.2287   0.2356   0.2393   0.2468
  0.2501   0.2556   0.2624   0.2751   0.2816   0.2948   0.3000   0.3031
  0.3126   0.3162   0.3205   0.3233   0.3265   0.3345   0.3493   0.3530
  0.3668   0.3710   0.3720   0.3781   0.3839   0.3920   0.4008   0.4071
  0.4108   0.4177   0.4268   0.4305   0.4327   0.4372   0.4460   0.4483
  0.4558   0.4714   0.4760   0.4835   0.4897   0.4945   0.4983   0.5022
  0.5057   0.5123   0.5149   0.5203   0.5245   0.5299   0.5340   0.5360
  0.5464   0.5475   0.5517   0.5577   0.5609   0.5670   0.5702   0.5744
  0.5776   0.5824   0.5876   0.5918   0.5979   0.6014   0.6038   0.6126
  0.6165   0.6225   0.6256   0.6302   0.6383   0.6511   0.6597   0.6634
  0.6752   0.6834   0.6892   0.6964   0.7031   0.7135   0.7216   0.7266
  0.7300   0.7428   0.7496   0.7528   0.7573   0.7700   0.7794   0.7855
  0.7954   0.8074   0.8125   0.8183   0.8250   0.8348   0.8549   0.8616
  0.8753   0.8795   0.8846   0.8854   0.9052   0.9173   0.9208   0.9317
  0.9518   0.9595   0.9700   0.9779   0.9901   1.0016   1.0110   1.0165
  1.0245   1.0376   1.0419   1.0616   1.0688   1.0734   1.0890   1.0983
  1.1021   1.1207   1.1286   1.1373   1.1393   1.1418   1.1521   1.1625
  1.1776   1.1959   1.2020   1.2128   1.2140   1.2328   1.2354   1.2470
  1.2635   1.2736   1.2890   1.3122   1.3177   1.3382   1.3559   1.3699
  1.3736   1.3896   1.3968   1.4062   1.4221   1.4487   1.4596   1.4886
  1.4964   1.5101   1.5151   1.5288   1.5337   1.5452   1.5517   1.5583
  1.5633   1.5706   1.5726   1.5872   1.5884   1.5954   1.6026   1.6053
  1.6098   1.6245   1.6294   1.6395   1.6475   1.6599   1.6633   1.6715
  1.6797   1.6841   1.6936   1.7036   1.7111   1.7167   1.7238   1.7298
  1.7355   1.7415   1.7531   1.7660   1.7778   1.7957   1.8095   1.8185
  1.8385   1.8494   1.8562   1.8673   1.8743   1.8802   1.8925   1.8931
  1.8981   1.9012   1.9084   1.9153   1.9294   1.9368   1.9547   1.9666
  1.9866   1.9880   2.0107   2.0291   2.0354   2.0436   2.0517   2.0575
  2.0670   2.0830   2.0888   2.0988   2.1074   2.1120   2.1232   2.1290
  2.1374   2.1461   2.1678   2.1939   2.2005   2.2107   2.2196   2.2249
  2.2330   2.2381   2.2412   2.2629   2.2769   2.2856   2.2890   2.2969
  2.3047   2.3083   2.3161   2.3218   2.3249   2.3413   2.3476   2.3538
  2.3656   2.3708   2.3847   2.3941   2.4002   2.4175   2.4256   2.4394
  2.4704   2.4769   2.4879   2.4955   2.4973   2.5273   2.5370   2.5385
  2.5569   2.5678   2.5816   2.5944   2.6025   2.6124   2.6257   2.6413
  2.6484   2.6654   2.6833   2.6869   2.7025   2.7075   2.7140   2.7258
  2.7341   2.7466   2.7557   2.7721   2.7756   2.7902   2.7957   2.8043
  2.8107   2.8201   2.8296   2.8384   2.8415   2.8441   2.8463   2.8508
  2.8636   2.8697   2.8987   2.9316   2.9500   2.9617   2.9737   2.9847
  2.9923   2.9978   3.0073   3.0101   3.0277   3.0301   3.0396   3.0423
  3.0493   3.0578   3.0648   3.0682   3.0821   3.0829   3.0867   3.0924
  3.0965   3.1053   3.1141   3.1202   3.1354   3.1462   3.1507   3.1611
  3.1621   3.1777   3.1854   3.1934   3.2038   3.2140   3.2260   3.2361
  3.2463   3.2555   3.2692   3.2829   3.2897   3.2981   3.3091   3.3168
  3.3195   3.3355   3.3395   3.3468   3.3555   3.3634   3.3693   3.3768
  3.3798   3.3884   3.4001   3.4019   3.4103   3.4113   3.4315   3.4422
  3.4484   3.4546   3.4602   3.4686   3.4729   3.4789   3.4987   3.5013
  3.5086   3.5198   3.5323   3.5388   3.5431   3.5522   3.5655   3.5792
  3.5814   3.5834   3.5938   3.5994   3.6073   3.6214   3.6403   3.6464
  3.6601   3.6629   3.6777   3.6820   3.6986   3.7141   3.7166   3.7392
  3.7474   3.7618   3.7932   3.8014   3.8453   3.8485   3.8538   3.8670
  3.8776   3.9033   3.9243   3.9348   3.9482   3.9605   3.9865   4.0099
  4.0115   4.0213   4.0366   4.0406   4.0442   4.0604   4.0755   4.0857
  4.1036   4.1410   4.1494   4.1701   4.1794   4.1942   4.3460   4.3588
  4.3704   4.3799   4.4141   4.4197   4.4387   4.4487   4.4795   4.4851
  4.4882   4.5137   4.5246   4.5555   4.5735   4.5846   4.6053   4.6177
  4.6431   4.6730   4.6917   4.7100   4.7434   4.7536   4.7936   4.8083
  4.8234   4.8286   4.8731   4.9055   4.9273   5.0196   5.0431   5.0510
  5.0836   5.1966   5.2006   5.2024   5.2029   5.2080   5.2140   5.2193
  5.2231   5.2289   5.2311   5.2320   5.2334   5.2339   5.2362   5.2380
  5.2412   5.2634   5.2910   5.3292   5.3437   5.3680   5.3728   5.3903
  5.4116   5.4241   5.4451   5.4540   5.4762   5.4877   5.5173   5.5216
  5.5445   5.5728   5.5800   5.5813   5.5824   5.5839   5.5872   5.6026
  5.6095   5.6516   5.6575   5.6633   5.6651   5.7382   5.7468   5.7791
  5.8000   5.8440   5.8615   5.8856   5.9158   5.9481   5.9689   6.0634
  6.0671   6.0705   6.0778   6.0889   6.0951   6.1041   6.1071   6.1584
  6.1601   6.1625   6.1637   6.3445   6.3492   6.3522   6.3584   6.3778
  6.3781   6.3791   6.3804   6.4338   6.4353   6.4404   6.4412   6.4565
  6.4628   6.4659   6.4704   6.5025   6.5082   6.5215   6.5268   6.7321
  6.7385   6.7432   6.7467   6.7789   6.7801   6.7832   6.7948   6.8595
  6.8616   6.8673   6.8687   6.9433   6.9447   6.9456   6.9469   7.1017
  7.1053   7.1087   7.1102   7.1133   7.1163   7.1248   7.1279   7.1902
  7.2032   7.2087   7.2097  22.7832  22.8009  22.8217  22.8499  22.8790
 22.9587  23.6514  23.6548  23.6611  23.6779  32.9202  32.9323  44.1060
 44.1102  44.1198  44.1347  44.1417  44.1557  44.1665  44.1885
 --------------------------------------------------------------
 
          Ground-State Mulliken Net Atomic Charges

     Atom                 Charge (a.u.)
  ----------------------------------------
      1 N                    -0.180060
      2 C                    -0.335507
      3 H                     0.171746
      4 H                     0.144934
      5 C                    -0.308719
      6 H                     0.178224
      7 H                     0.142663
      8 C                    -0.288015
      9 H                     0.191075
     10 H                     0.159431
     11 C                     0.292042
     12 O                    -0.598787
     13 O                    -0.624863
     14 C                     0.282043
     15 O                    -0.600669
     16 O                    -0.622487
     17 C                    -0.289193
     18 H                     0.180357
     19 H                     0.176060
     20 N                    -0.183547
     21 C                    -0.329962
     22 H                     0.175931
     23 H                     0.132716
     24 C                    -0.333192
     25 H                     0.167846
     26 H                     0.147339
     27 C                     0.306698
     28 O                    -0.607090
     29 O                    -0.616973
     30 C                     0.296321
     31 O                    -0.598622
     32 O                    -0.627742
  ----------------------------------------
  Sum of atomic charges =    -4.000000

 -----------------------------------------------------------------
                    Cartesian Multipole Moments
 -----------------------------------------------------------------
    Charge (ESU x 10^10)
               -19.2128
    Dipole Moment (Debye)
         X      32.0437      Y       0.4312      Z      16.9222
       Tot      36.2401
    Quadrupole Moments (Debye-Ang)
        XX    -370.5825     XY     -20.1253     YY    -228.9555
        XZ    -104.5009     YZ      28.7511     ZZ    -261.1892
    Octopole Moments (Debye-Ang^2)
       XXX    1316.5619    XXY      81.6355    XYY     503.1815
       YYY    -149.0947    XXZ     651.6402    XYZ       8.3676
       YYZ     264.6942    XZZ     675.0024    YZZ     -19.7517
       ZZZ     562.3779
    Hexadecapole Moments (Debye-Ang^3)
      XXXX  -11473.7524   XXXY   -1322.0676   XXYY   -2908.1783
      XYYY      20.2535   YYYY   -2956.7614   XXXZ   -4108.2594
      XXYZ    -299.9968   XYYZ   -1168.1067   YYYZ     551.3016
      XXZZ   -3605.1826   XYZZ    -179.6295   YYZZ   -1435.0467
      XZZZ   -2893.3638   YZZZ     505.2467   ZZZZ   -5177.3044
 -----------------------------------------------------------------
 Calculating analytic gradient of the SCF energy
 Gradient of CDS energy
            1           2           3           4           5           6
    1  -0.0005833   0.0007216   0.0002528  -0.0002434  -0.0001869  -0.0002238
    2   0.0024966  -0.0001265  -0.0001097   0.0003908  -0.0003492  -0.0000922
    3   0.0010433   0.0000831  -0.0001359  -0.0000504  -0.0008565  -0.0002893
            7           8           9          10          11          12
    1  -0.0001584  -0.0000808  -0.0001368   0.0000279  -0.0017197   0.0010192
    2   0.0002969  -0.0006234  -0.0001512   0.0003217  -0.0021809   0.0018014
    3   0.0003166   0.0006699  -0.0000307   0.0000689   0.0021389   0.0001022
           13          14          15          16          17          18
    1   0.0005336   0.0034640  -0.0013780  -0.0015257   0.0000290   0.0000794
    2  -0.0004844  -0.0003262   0.0014677  -0.0018086  -0.0002612   0.0003297
    3  -0.0022729   0.0003490  -0.0005031   0.0001290  -0.0030556   0.0000487
           19          20          21          22          23          24
    1   0.0007284  -0.0012411   0.0010457   0.0003808  -0.0000666  -0.0007137
    2  -0.0009333   0.0006517  -0.0002899  -0.0001633   0.0001699  -0.0002175
    3   0.0005364   0.0039604  -0.0008700  -0.0001423   0.0004143  -0.0002261
           25          26          27          28          29          30
    1  -0.0001655   0.0002657   0.0004034  -0.0004572   0.0002938  -0.0028541
    2  -0.0001748  -0.0000581   0.0033718  -0.0012920  -0.0016029  -0.0016728
    3  -0.0002347   0.0003928  -0.0007977   0.0016534  -0.0015699  -0.0013522
           31          32
    1   0.0014280   0.0010619
    2  -0.0003083   0.0019282
    3   0.0014553  -0.0009749
 Gradient of SCF Energy
            1           2           3           4           5           6
    1   0.0152285   0.0611614  -0.0896450   0.0249329   0.0248778   0.0053930
    2  -0.0662516   0.0681015   0.0153764  -0.0758209   0.1330555  -0.0037808
    3  -0.0223530   0.1263903  -0.0336544  -0.0273187  -0.0865798   0.0951982
            7           8           9          10          11          12
    1   0.0143954  -0.1758625   0.0683608   0.0185335  -0.0645056   0.0399338
    2  -0.0766331   0.0254625   0.0622616  -0.0765089  -0.1150136   0.1165032
    3  -0.0264811   0.1783928  -0.0398061  -0.0238799   0.0638205   0.0304547
           13          14          15          16          17          18
    1   0.0378543   0.1326271  -0.0623467  -0.0948420   0.1747804  -0.0347565
    2  -0.0003884  -0.0416826   0.1028696  -0.0720568   0.0310485  -0.0758779
    3  -0.1185372   0.0112622  -0.0197650   0.0020206  -0.1922715   0.0376991
           19          20          21          22          23          24
    1  -0.0509079  -0.0044498   0.0251039  -0.0669983   0.0133099  -0.1343165
    2   0.0686617  -0.0019218  -0.1238974   0.0682607   0.0026517   0.0347121
    3   0.0385999  -0.0379345   0.0807890   0.0174144  -0.0867044   0.0840911
           25          26          27          28          29          30
    1   0.0886307   0.0007357   0.0188548  -0.0281250   0.0159363  -0.1043937
    2   0.0137343   0.0040072   0.1339923  -0.0551393  -0.1024348  -0.0576970
    3   0.0356241  -0.0886959  -0.0544964   0.1104322  -0.0610545  -0.0766244
           31          32
    1   0.0603144   0.0701848
    2  -0.0306970   0.0951030
    3   0.1067195  -0.0227517
 Max gradient component =       1.923E-01
 RMS gradient           =       7.515E-02
 Computing fast CPCM-SWIG gradient
 Updating gradient with PCM contributions...
 -- total gradient after adding PCM contribution --
---------------------------------------------------
  Atom         X              Y              Z     
---------------------------------------------------
   1      -0.000303       0.000235      -0.000092
   2       0.000029       0.000061      -0.000672
   3      -0.000390       0.000134      -0.000758
   4      -0.000024      -0.000545      -0.000914
   5      -0.000704      -0.000345       0.000150
   6      -0.000639      -0.000277       0.000681
   7      -0.000407      -0.000971       0.000127
   8       0.000019      -0.000131      -0.000139
   9       0.000349       0.000219      -0.000629
  10       0.000247      -0.000680      -0.000579
  11      -0.000084       0.000691      -0.000985
  12       0.000249       0.000973      -0.000485
  13       0.000374       0.000128      -0.000783
  14      -0.001009      -0.000021       0.000358
  15      -0.000958       0.000558       0.000029
  16      -0.000832      -0.000332      -0.000041
  17      -0.000289       0.000142       0.000677
  18      -0.000472      -0.000249       0.000936
  19      -0.000521       0.000495       0.000860
  20       0.000008       0.000157       0.000630
  21       0.000330       0.000720       0.000203
  22      -0.000213       0.000899       0.000223
  23       0.000388       0.000781      -0.000521
  24       0.000478      -0.000482       0.000076
  25       0.000877      -0.000431       0.000038
  26       0.000895      -0.000468      -0.000597
  27       0.000769      -0.001085       0.000468
  28      -0.000079      -0.000845       0.000731
  29       0.000129      -0.001020      -0.000187
  30       0.000511       0.000833       0.000484
  31       0.000652       0.000298       0.000765
  32       0.000621       0.000560      -0.000052
---------------------------------------------------
 Number of fixed atoms: 0
 Gradient time:  CPU 804.70 s  wall 79.73 s
 Geometry Optimization Parameters
   NAtoms,    NIC,     NZ,  NCons,   NDum,   NFix, NCnnct, MaxDiis
       32     218       0       0       0       0       0       0

 Cartesian Hessian Update
 Hessian updated using BFGS update


** GEOMETRY OPTIMIZATION IN DELOCALIZED INTERNAL COORDINATES **
   Searching for a Minimum

   Optimization Cycle:   2

                       Coordinates (Angstroms)
     ATOM                X               Y               Z
      1  N        -0.0404641514   -0.0092635756   -0.0285648850
      2  C        -0.0370865904    0.0546643777    1.4202647547
      3  H         0.9789066501   -0.0979603273    1.7800591430
      4  H        -0.3591835970    1.0441590624    1.7642508438
      5  C         0.9428303013    0.9295092548   -0.5341296781
      6  H         0.8785587390    0.9659154366   -1.6196711312
      7  H         0.7454280602    1.9428276092   -0.1654973879
      8  C        -1.3632735737    0.3931175569   -0.4950887243
      9  H        -2.0880740096   -0.2542333104   -0.0117587066
     10  H        -1.5718745052    1.4211014148   -0.1722861816
     11  C        -0.8941353274   -0.9886190802    2.1253437127
     12  O        -1.2118612059   -2.0427653645    1.5270949193
     13  O        -1.1908814954   -0.7183038929    3.3193164641
     14  C         2.3950855002    0.5894718330   -0.2257235484
     15  O         2.7182452556   -0.5989634571    0.0059539963
     16  O         3.1969139340    1.5589896215   -0.2765741425
     17  C        -1.5100212817    0.2854068671   -2.0089710703
     18  H        -1.1426300399    1.1920638035   -2.4819744630
     19  H        -0.9046910094   -0.5460575814   -2.3633315409
     20  N        -2.8802676496    0.0690700576   -2.4750884572
     21  C        -3.3634563413   -1.2398105432   -2.0839332308
     22  H        -2.5936942174   -1.9774143062   -2.3113234504
     23  H        -3.5638934094   -1.3098527868   -1.0114739727
     24  C        -3.7695475525    1.0808788664   -1.9293412798
     25  H        -4.7722285809    0.9040661300   -2.3158162867
     26  H        -3.8245204103    1.0198915080   -0.8405885499
     27  C        -3.3996300124    2.5084514033   -2.3114151147
     28  O        -3.0183211562    2.7385022728   -3.4846665259
     29  O        -3.5505925195    3.3832580382   -1.4194628021
     30  C        -4.6259857071   -1.7156558253   -2.7949273865
     31  O        -5.0173204408   -1.1451180799   -3.8384352739
     32  O        -5.1820729748   -2.7166541981   -2.2679897165
   Point Group: c1    Number of degrees of freedom:    90


   Energy is  -1100.573791620

 Hessian updated using BFGS update

 84 Hessian modes will be used to form the next step
  Hessian Eigenvalues:
     0.005676    0.005927    0.005958    0.006020    0.006110    0.006147
     0.006205    0.006237    0.006682    0.007469    0.007951    0.008801
     0.009013    0.009144    0.011244    0.034679    0.038523    0.041616
     0.042645    0.046312    0.046628    0.046808    0.048683    0.055397
     0.056921    0.064397    0.064650    0.064769    0.065633    0.095070
     0.097227    0.102050    0.104050    0.104540    0.104924    0.128694
     0.130479    0.134327    0.135524    0.135615    0.135779    0.157173
     0.159612    0.165766    0.169630    0.218312    0.219862    0.220405
     0.220494    0.220581    0.244028    0.249711    0.260275    0.296432
     0.300061    0.300668    0.300785    0.303585    0.339191    0.340880
     0.341267    0.343963    0.345563    0.347825    0.348869    0.349657
     0.350222    0.350595    0.351780    0.353082    0.367113    0.374040
     0.379680    0.382306    0.383469    0.439830    0.794765    0.797760
     0.799422    0.801942    0.814322    0.820550    0.821260    0.824854

 Minimum search - taking simple RFO step
 Searching for Lamda that Minimizes Along All modes
 Value Taken    Lamda =  -0.00243418
 Calculated Step too Large.  Step scaled by  0.024871
 Step Taken.  Stepsize is  0.010000

                             Maximum     Tolerance    Cnvgd?
         Gradient           0.009438      0.000040      NO
         Displacement       0.004077      0.000100      NO
         Energy change     -0.000089      0.000000      NO


 New Cartesian Coordinates Obtained by Inverse Iteration

 Displacement from previous Coordinates is:  0.026887
 ----------------------------------------------------------------
             Standard Nuclear Orientation (Angstroms)
    I     Atom           X                Y                Z
 ----------------------------------------------------------------
    1      N      -0.0397098523    -0.0087356737    -0.0276565360
    2      C      -0.0355954311     0.0540324309     1.4214568881
    3      H       0.9807617068    -0.0981263029     1.7805539801
    4      H      -0.3580931255     1.0430366628     1.7666350467
    5      C       0.9439149879     0.9300221312    -0.5332919272
    6      H       0.8790600705     0.9672101664    -1.6188165586
    7      H       0.7474006685     1.9433227028    -0.1639871446
    8      C      -1.3630254906     0.3934935672    -0.4938059346
    9      H      -2.0875067027    -0.2539574536    -0.0099804297
   10      H      -1.5717003742     1.4214670829    -0.1708147288
   11      C      -0.8910408806    -0.9905914285     2.1268823709
   12      O      -1.2094453712    -2.0442556281     1.5281059730
   13      O      -1.1888143196    -0.7201581345     3.3205946093
   14      C       2.3965237509     0.5892313061    -0.2264641581
   15      O       2.7195489297    -0.5993282681     0.0048825820
   16      O       3.1984383667     1.5587729153    -0.2760120202
   17      C      -1.5108791979     0.2856424368    -2.0079079873
   18      H      -1.1435002256     1.1921604600    -2.4813215130
   19      H      -0.9056774948    -0.5458650452    -2.3625786164
   20      N      -2.8813072596     0.0692882568    -2.4742662376
   21      C      -3.3650965949    -1.2397665100    -2.0836841158
   22      H      -2.5948140538    -1.9773327529    -2.3096803817
   23      H      -3.5673939507    -1.3099070054    -1.0115307013
   24      C      -3.7713134575     1.0818170777    -1.9304653982
   25      H      -4.7737384795     0.9040794552    -2.3173298655
   26      H      -3.8272288777     1.0225995672    -0.8416090829
   27      C      -3.4023836357     2.5092685472    -2.3147057599
   28      O      -3.0183256862     2.7375169337    -3.4874378218
   29      O      -3.5525153854     3.3851317056    -1.4236174836
   30      C      -4.6262269203    -1.7165066537    -2.7969640454
   31      O      -5.0163693741    -1.1462141713    -3.8410771886
   32      O      -5.1836856586    -2.7166755931    -2.2698554860
 ----------------------------------------------------------------
 Nuclear Repulsion Energy =        1583.47381633 hartrees
 There are       77 alpha and       77 beta electrons
 Discretize the solute cavity surface with Lebedev spheres
	Using 110 Lebedev grid points for each H atom
	Using 194 Lebedev grid points for other atoms
	Atomic van der Waals radii will be scaled by 1.20
 Remove points where switching function is < 1.0e-08
 Keep 2487 surface tesserae and discard 2713 interior tesserae
 Molecular Surface Area = 283.305 Angst**2
 Applying Cartesian multipole field
    Component          Value
    ---------          -----
     (2,0,0)        1.00000E-12
     (0,2,0)        2.00000E-11
     (0,0,2)       -3.00000E-11
 Nucleus-field energy     =    -0.0000000376 hartrees
 Requested basis set is def2-TZVP
 There are 268 shells and 692 basis functions
 A cutoff of  1.0D-11 yielded  23997 shell pairs
 There are    148325 function pairs (    188632 Cartesian)
 Smallest overlap matrix eigenvalue = 7.27E-05
 Guess MOs from SCF MO coefficient file

 -----------------------------------------------------------------------
  General SCF calculation program by
  Eric Jon Sundstrom, Paul Horn, Yuezhi Mao, Dmitri Zuev, Alec White,
  David Stuck, Shaama M.S., Shane Yost, Joonho Lee, David Small,
  Daniel Levine, Susi Lehtola, Hugh Burton, Evgeny Epifanovsky
 -----------------------------------------------------------------------
 Exchange:     0.5600 Hartree-Fock + 1.0000 M05-2X
 Correlation:  1.0000 M05-2X
 Using SG-3 standard quadrature grid
 
 Citation of the SMD model:
 Marenich, A.V.; Cramer, C.J.; Truhlar, D.G.
 J. Phys. Chem. B 2009, 113, 6378-6396.
 iSolventCode=           1
 Solvent: water                                                           
 
 vradii
            1           2           3           4           5           6
    1   1.8900000   1.8500000   1.2000000   1.2000000   1.8500000   1.2000000
            7           8           9          10          11          12
    1   1.2000000   1.8500000   1.2000000   1.2000000   1.8500000   1.5200000
           13          14          15          16          17          18
    1   1.5200000   1.8500000   1.5200000   1.5200000   1.8500000   1.2000000
           19          20          21          22          23          24
    1   1.2000000   1.8900000   1.8500000   1.2000000   1.2000000   1.8500000
           25          26          27          28          29          30
    1   1.2000000   1.2000000   1.8500000   1.5200000   1.5200000   1.8500000
           31          32
    1   1.5200000   1.5200000
 using 16 threads for integral computing
 -------------------------------------------------------
 OpenMP Integral computing Module                
 Release: version 2.0, May 2017, Q-Chem Inc. Pleasanton 
 -------------------------------------------------------
 A restricted SCF calculation will be
 performed using Roothaan-Hall, DIIS
 SCF converges when DIIS error is below 1.0e-08
 ---------------------------------------
  Cycle       Energy         DIIS error
 ---------------------------------------
    1   -1101.7927048450      1.09e-04  Roothaan Step
 ---------------------------------------
  Cycle       Energy         DIIS error
 ---------------------------------------
    1   -1100.5827527186      1.50e-04  
    2   -1100.5834478558      1.47e-04  
    3   -1100.5843903573      2.51e-05  
    4   -1100.5844170099      1.05e-05  
    5   -1100.5844224231      2.59e-06  
    6   -1100.5844227219      1.87e-06  
    7   -1100.5844228694      2.97e-07  
    8   -1100.5844228754      9.92e-08  
    9   -1100.5844228760      3.76e-08  
   10   -1100.5844228761      1.04e-08  
   11   -1100.5844228761      4.40e-09  Convergence criterion met
 ---------------------------------------
 SCF time:   CPU 4972.64s  wall 359.00s 
(3)  G-ENP(liq) elect-nuc-pol free energy of system    -1100.584422876 a.u.
(4)  G-CDS(liq) cavity-dispersion-solvent structure 
     free energy                                                6.6357 kcal/mol
(6)  G-S(liq) free energy of system                    -1100.573848237 a.u.
 SCF   energy in the final basis set =    -1100.5844228761
 Total energy in the final basis set =    -1100.5738482370
 
 --------------------------------------------------------------
 
                    Orbital Energies (a.u.)
 --------------------------------------------------------------
 
 Alpha MOs
 -- Occupied --
-19.6107 -19.6107 -19.6105 -19.6102 -19.6096 -19.6089 -19.6082 -19.6076
-14.7677 -14.7667 -10.6561 -10.6555 -10.6555 -10.6552 -10.5682 -10.5677
-10.5665 -10.5655 -10.5654 -10.5622  -1.1593  -1.1589  -1.1576  -1.1573
 -1.0581  -1.0570  -1.0563  -1.0559  -1.0424  -1.0261  -0.8443  -0.8198
 -0.8190  -0.7738  -0.7125  -0.6701  -0.6098  -0.6039  -0.5942  -0.5912
 -0.5635  -0.5554  -0.5510  -0.5454  -0.5367  -0.5325  -0.5166  -0.5143
 -0.5038  -0.4996  -0.4985  -0.4971  -0.4849  -0.4820  -0.4766  -0.4698
 -0.4595  -0.4482  -0.4404  -0.4268  -0.4085  -0.4038  -0.3953  -0.3390
 -0.3388  -0.3378  -0.3368  -0.3275  -0.3266  -0.3252  -0.3243  -0.3233
 -0.3229  -0.3214  -0.3200  -0.2895  -0.2735
 -- Virtual --
  0.0839   0.0886   0.0924   0.1018   0.1055   0.1127   0.1186   0.1250
  0.1481   0.1540   0.1584   0.1628   0.1695   0.1778   0.1909   0.1934
  0.2044   0.2116   0.2170   0.2214   0.2286   0.2356   0.2392   0.2468
  0.2500   0.2556   0.2623   0.2750   0.2814   0.2947   0.2999   0.3031
  0.3125   0.3161   0.3203   0.3232   0.3264   0.3345   0.3492   0.3529
  0.3668   0.3710   0.3720   0.3780   0.3838   0.3920   0.4007   0.4069
  0.4108   0.4176   0.4266   0.4305   0.4326   0.4371   0.4459   0.4483
  0.4558   0.4712   0.4758   0.4833   0.4896   0.4944   0.4982   0.5022
  0.5057   0.5123   0.5148   0.5201   0.5244   0.5298   0.5338   0.5358
  0.5463   0.5474   0.5516   0.5577   0.5609   0.5670   0.5701   0.5744
  0.5774   0.5824   0.5876   0.5917   0.5978   0.6013   0.6037   0.6126
  0.6165   0.6225   0.6255   0.6300   0.6381   0.6509   0.6594   0.6633
  0.6751   0.6834   0.6892   0.6963   0.7029   0.7135   0.7215   0.7265
  0.7298   0.7427   0.7493   0.7526   0.7572   0.7698   0.7793   0.7854
  0.7953   0.8071   0.8124   0.8180   0.8250   0.8347   0.8547   0.8614
  0.8751   0.8794   0.8844   0.8853   0.9049   0.9172   0.9206   0.9315
  0.9516   0.9592   0.9700   0.9778   0.9902   1.0013   1.0108   1.0164
  1.0244   1.0374   1.0417   1.0616   1.0688   1.0734   1.0891   1.0982
  1.1021   1.1207   1.1286   1.1372   1.1392   1.1418   1.1518   1.1623
  1.1774   1.1957   1.2019   1.2126   1.2140   1.2324   1.2350   1.2470
  1.2632   1.2734   1.2888   1.3118   1.3174   1.3378   1.3557   1.3696
  1.3735   1.3895   1.3967   1.4059   1.4219   1.4484   1.4594   1.4885
  1.4961   1.5100   1.5150   1.5287   1.5337   1.5450   1.5516   1.5583
  1.5632   1.5706   1.5726   1.5871   1.5882   1.5954   1.6026   1.6052
  1.6096   1.6245   1.6292   1.6393   1.6475   1.6597   1.6634   1.6715
  1.6797   1.6841   1.6934   1.7034   1.7110   1.7166   1.7238   1.7295
  1.7354   1.7415   1.7531   1.7659   1.7775   1.7955   1.8091   1.8183
  1.8384   1.8490   1.8560   1.8670   1.8745   1.8802   1.8924   1.8932
  1.8980   1.9012   1.9081   1.9152   1.9293   1.9366   1.9546   1.9663
  1.9861   1.9880   2.0105   2.0289   2.0353   2.0433   2.0516   2.0571
  2.0668   2.0828   2.0885   2.0985   2.1073   2.1118   2.1228   2.1288
  2.1373   2.1459   2.1676   2.1938   2.2001   2.2106   2.2195   2.2249
  2.2329   2.2379   2.2410   2.2629   2.2766   2.2855   2.2889   2.2965
  2.3045   2.3079   2.3159   2.3216   2.3246   2.3413   2.3473   2.3534
  2.3651   2.3702   2.3842   2.3938   2.3999   2.4174   2.4252   2.4391
  2.4702   2.4769   2.4877   2.4951   2.4970   2.5269   2.5367   2.5383
  2.5562   2.5673   2.5814   2.5940   2.6020   2.6121   2.6252   2.6411
  2.6482   2.6650   2.6832   2.6868   2.7020   2.7073   2.7138   2.7254
  2.7338   2.7462   2.7553   2.7719   2.7751   2.7900   2.7952   2.8043
  2.8106   2.8199   2.8292   2.8383   2.8413   2.8438   2.8461   2.8507
  2.8631   2.8692   2.8983   2.9314   2.9497   2.9616   2.9737   2.9846
  2.9922   2.9977   3.0072   3.0100   3.0277   3.0301   3.0395   3.0423
  3.0492   3.0578   3.0648   3.0681   3.0819   3.0829   3.0865   3.0923
  3.0962   3.1049   3.1141   3.1200   3.1353   3.1459   3.1505   3.1608
  3.1619   3.1775   3.1851   3.1931   3.2035   3.2137   3.2257   3.2357
  3.2461   3.2553   3.2688   3.2824   3.2895   3.2978   3.3090   3.3166
  3.3194   3.3353   3.3393   3.3466   3.3554   3.3630   3.3690   3.3763
  3.3795   3.3881   3.3999   3.4015   3.4100   3.4113   3.4313   3.4418
  3.4482   3.4543   3.4599   3.4684   3.4726   3.4787   3.4986   3.5010
  3.5083   3.5194   3.5318   3.5383   3.5429   3.5518   3.5653   3.5788
  3.5813   3.5832   3.5937   3.5991   3.6070   3.6209   3.6397   3.6459
  3.6595   3.6623   3.6771   3.6813   3.6981   3.7135   3.7160   3.7382
  3.7465   3.7613   3.7928   3.8008   3.8451   3.8487   3.8532   3.8664
  3.8771   3.9029   3.9240   3.9344   3.9480   3.9602   3.9860   4.0096
  4.0108   4.0209   4.0363   4.0401   4.0438   4.0599   4.0750   4.0852
  4.1031   4.1407   4.1491   4.1698   4.1791   4.1939   4.3455   4.3585
  4.3703   4.3797   4.4138   4.4193   4.4384   4.4482   4.4790   4.4848
  4.4881   4.5136   4.5241   4.5552   4.5730   4.5842   4.6048   4.6172
  4.6426   4.6723   4.6909   4.7093   4.7429   4.7526   4.7934   4.8080
  4.8229   4.8282   4.8727   4.9050   4.9272   5.0197   5.0430   5.0510
  5.0836   5.1965   5.2005   5.2023   5.2029   5.2079   5.2139   5.2193
  5.2231   5.2288   5.2310   5.2319   5.2332   5.2338   5.2361   5.2379
  5.2411   5.2631   5.2906   5.3289   5.3435   5.3678   5.3726   5.3897
  5.4109   5.4237   5.4445   5.4535   5.4755   5.4869   5.5166   5.5209
  5.5440   5.5728   5.5800   5.5813   5.5824   5.5839   5.5869   5.6022
  5.6090   5.6515   5.6574   5.6633   5.6650   5.7378   5.7465   5.7787
  5.7996   5.8437   5.8611   5.8854   5.9155   5.9481   5.9686   6.0633
  6.0670   6.0702   6.0776   6.0887   6.0949   6.1040   6.1070   6.1584
  6.1600   6.1625   6.1638   6.3444   6.3491   6.3521   6.3583   6.3776
  6.3780   6.3790   6.3803   6.4338   6.4353   6.4404   6.4412   6.4564
  6.4627   6.4658   6.4702   6.5024   6.5080   6.5213   6.5266   6.7321
  6.7384   6.7431   6.7466   6.7789   6.7801   6.7831   6.7948   6.8594
  6.8616   6.8672   6.8686   6.9432   6.9446   6.9456   6.9469   7.1016
  7.1052   7.1087   7.1101   7.1132   7.1161   7.1247   7.1278   7.1899
  7.2029   7.2084   7.2094  22.7821  22.7999  22.8207  22.8488  22.8778
 22.9570  23.6509  23.6543  23.6606  23.6768  32.9199  32.9317  44.1058
 44.1100  44.1196  44.1344  44.1416  44.1555  44.1659  44.1883
 --------------------------------------------------------------
 
          Ground-State Mulliken Net Atomic Charges

     Atom                 Charge (a.u.)
  ----------------------------------------
      1 N                    -0.180331
      2 C                    -0.335420
      3 H                     0.171701
      4 H                     0.144997
      5 C                    -0.308640
      6 H                     0.178176
      7 H                     0.142668
      8 C                    -0.287491
      9 H                     0.191007
     10 H                     0.159352
     11 C                     0.292088
     12 O                    -0.598841
     13 O                    -0.624882
     14 C                     0.282073
     15 O                    -0.600708
     16 O                    -0.622482
     17 C                    -0.289315
     18 H                     0.180314
     19 H                     0.176058
     20 N                    -0.183771
     21 C                    -0.329835
     22 H                     0.175894
     23 H                     0.132854
     24 C                    -0.332988
     25 H                     0.167778
     26 H                     0.147288
     27 C                     0.306663
     28 O                    -0.607103
     29 O                    -0.617042
     30 C                     0.296334
     31 O                    -0.598667
     32 O                    -0.627730
  ----------------------------------------
  Sum of atomic charges =    -4.000000

 -----------------------------------------------------------------
                    Cartesian Multipole Moments
 -----------------------------------------------------------------
    Charge (ESU x 10^10)
               -19.2128
    Dipole Moment (Debye)
         X      32.0288      Y       0.4429      Z      16.9476
       Tot      36.2389
    Quadrupole Moments (Debye-Ang)
        XX    -370.6161     XY     -20.1231     YY    -228.9964
        XZ    -104.6232     YZ      28.7902     ZZ    -261.3664
    Octopole Moments (Debye-Ang^2)
       XXX    1316.3716    XXY      81.6876    XYY     503.3144
       YYY    -149.0666    XXZ     652.2081    XYZ       8.3612
       YYZ     264.9320    XZZ     675.5270    YZZ     -19.6372
       ZZZ     563.1578
    Hexadecapole Moments (Debye-Ang^3)
      XXXX  -11478.8930   XXXY   -1322.5729   XXYY   -2910.0820
      XYYY      21.0647   YYYY   -2958.8108   XXXZ   -4112.0562
      XXYZ    -300.4261   XYYZ   -1169.8085   YYYZ     552.5603
      XXZZ   -3608.5414   XYZZ    -179.9706   YYZZ   -1437.0108
      XZZZ   -2898.2284   YZZZ     506.2015   ZZZZ   -5185.3667
 -----------------------------------------------------------------
 Calculating analytic gradient of the SCF energy
 Gradient of CDS energy
            1           2           3           4           5           6
    1  -0.0005824   0.0007211   0.0002525  -0.0002436  -0.0001883  -0.0002237
    2   0.0024939  -0.0001250  -0.0001097   0.0003906  -0.0003486  -0.0000921
    3   0.0010440   0.0000822  -0.0001360  -0.0000497  -0.0008565  -0.0002891
            7           8           9          10          11          12
    1  -0.0001578  -0.0000809  -0.0001367   0.0000283  -0.0017212   0.0010192
    2   0.0002969  -0.0006232  -0.0001514   0.0003221  -0.0021819   0.0018023
    3   0.0003166   0.0006698  -0.0000307   0.0000694   0.0021377   0.0001037
           13          14          15          16          17          18
    1   0.0005355   0.0034645  -0.0013775  -0.0015261   0.0000290   0.0000791
    2  -0.0004845  -0.0003274   0.0014695  -0.0018089  -0.0002612   0.0003292
    3  -0.0022727   0.0003494  -0.0005021   0.0001267  -0.0030512   0.0000487
           19          20          21          22          23          24
    1   0.0007277  -0.0012413   0.0010450   0.0003805  -0.0000670  -0.0007128
    2  -0.0009324   0.0006521  -0.0002892  -0.0001625   0.0001695  -0.0002189
    3   0.0005351   0.0039525  -0.0008662  -0.0001419   0.0004137  -0.0002246
           25          26          27          28          29          30
    1  -0.0001645   0.0002653   0.0004084  -0.0004618   0.0002923  -0.0028529
    2  -0.0001746  -0.0000573   0.0033709  -0.0012889  -0.0016055  -0.0016721
    3  -0.0002346   0.0003925  -0.0007997   0.0016542  -0.0015693  -0.0013552
           31          32
    1   0.0014258   0.0010644
    2  -0.0003084   0.0019271
    3   0.0014586  -0.0009753
 Gradient of SCF Energy
            1           2           3           4           5           6
    1   0.0152227   0.0611500  -0.0896095   0.0249448   0.0248929   0.0054434
    2  -0.0662353   0.0680994   0.0153127  -0.0757450   0.1330779  -0.0038534
    3  -0.0223863   0.1264721  -0.0335710  -0.0273831  -0.0864798   0.0951383
            7           8           9          10          11          12
    1   0.0143261  -0.1757200   0.0682944   0.0185372  -0.0644381   0.0399053
    2  -0.0765767   0.0256104   0.0622251  -0.0764717  -0.1150319   0.1164992
    3  -0.0265203   0.1781204  -0.0398189  -0.0238657   0.0636941   0.0304741
           13          14          15          16          17          18
    1   0.0378137   0.1325671  -0.0623235  -0.0947974   0.1745488  -0.0347170
    2  -0.0003561  -0.0417305   0.1028679  -0.0720155   0.0308204  -0.0758344
    3  -0.1184629   0.0111635  -0.0196497   0.0019953  -0.1921088   0.0377381
           19          20          21          22          23          24
    1  -0.0508545  -0.0043907   0.0249428  -0.0669920   0.0134603  -0.1342718
    2   0.0686325  -0.0018155  -0.1238876   0.0682077   0.0026758   0.0347235
    3   0.0385898  -0.0378912   0.0809154   0.0172782  -0.0866576   0.0840412
           25          26          27          28          29          30
    1   0.0885246   0.0008193   0.0189543  -0.0282735   0.0159465  -0.1042258
    2   0.0138023   0.0038953   0.1338058  -0.0549694  -0.1024494  -0.0576824
    3   0.0356048  -0.0886566  -0.0546402   0.1104317  -0.0609015  -0.0767468
           31          32
    1   0.0601328   0.0701871
    2  -0.0306260   0.0950248
    3   0.1068072  -0.0227239
 Max gradient component =       1.921E-01
 RMS gradient           =       7.511E-02
 Computing fast CPCM-SWIG gradient
 Updating gradient with PCM contributions...
 -- total gradient after adding PCM contribution --
---------------------------------------------------
  Atom         X              Y              Z     
---------------------------------------------------
   1      -0.000311       0.000250      -0.000080
   2      -0.000085       0.000112      -0.000660
   3      -0.000402       0.000098      -0.000704
   4      -0.000011      -0.000496      -0.000883
   5      -0.000656      -0.000313       0.000214
   6      -0.000575      -0.000269       0.000666
   7      -0.000409      -0.000916       0.000121
   8       0.000037      -0.000148      -0.000127
   9       0.000351       0.000227      -0.000604
  10       0.000244      -0.000649      -0.000544
  11       0.000392       0.000421      -0.000762
  12       0.000071       0.001001      -0.000525
[...]
  11       0.000007      -0.000011      -0.000000
  12       0.000019      -0.000014      -0.000018
  13       0.000004      -0.000025      -0.000012
  14      -0.000002       0.000024       0.000008
  15       0.000003       0.000023      -0.000001
  16      -0.000012       0.000024       0.000014
  17       0.000007       0.000005      -0.000003
  18      -0.000003       0.000015       0.000005
  19       0.000003       0.000012      -0.000007
  20       0.000006       0.000000      -0.000005
  21       0.000010      -0.000008      -0.000010
  22       0.000015      -0.000001      -0.000015
  23       0.000009      -0.000014      -0.000010
  24      -0.000011      -0.000003       0.000007
  25      -0.000004      -0.000010       0.000003
  26      -0.000007      -0.000015       0.000006
  27      -0.000017       0.000004       0.000020
  28      -0.000014       0.000012       0.000012
  29      -0.000019      -0.000007       0.000019
  30       0.000013      -0.000008      -0.000016
  31       0.000010      -0.000003      -0.000010
  32       0.000019      -0.000019      -0.000020
---------------------------------------------------
 Number of fixed atoms: 0
 Gradient time:  CPU 838.16 s  wall 81.71 s
 Geometry Optimization Parameters
   NAtoms,    NIC,     NZ,  NCons,   NDum,   NFix, NCnnct, MaxDiis
       32     218       0       0       0       0       0       0

 Cartesian Hessian Update
 Hessian updated using BFGS update


** GEOMETRY OPTIMIZATION IN DELOCALIZED INTERNAL COORDINATES **
   Searching for a Minimum

   Optimization Cycle: 103

                       Coordinates (Angstroms)
     ATOM                X               Y               Z
      1  N         0.0070361113    0.0112452556   -0.0028478697
      2  C         0.0113241760   -0.0301938538    1.4506179123
      3  H         1.0431933075   -0.0446444249    1.8006503442
      4  H        -0.4563763991    0.8686821135    1.8722724892
      5  C         0.8879775576    1.0838958266   -0.4389221544
      6  H         0.7964983334    1.2099854995   -1.5164645983
      7  H         0.6085887128    2.0411231288    0.0188844549
      8  C        -1.3599596719    0.2801317913   -0.4579905983
      9  H        -2.0171041648   -0.4189214490    0.0552604091
     10  H        -1.6553726872    1.2939373749   -0.1564901639
     11  C        -0.6545120691   -1.2450791872    2.0924609523
     12  O        -0.8467096677   -2.2860441065    1.4214056207
     13  O        -0.9313802997   -1.1153417863    3.3150865269
     14  C         2.3804595390    0.8692694608   -0.1928109566
     15  O         2.8304862911   -0.2912286635   -0.0455315452
     16  O         3.0795029013    1.9172360261   -0.2064110820
     17  C        -1.5270524028    0.1085590964   -1.9673677156
     18  H        -1.0646520786    0.9410060409   -2.4930923243
     19  H        -1.0144864868   -0.8016686439   -2.2748244343
     20  N        -2.9115963030    0.0116477614   -2.4401102459
     21  C        -3.5562578038   -1.2087254680   -1.9912021364
     22  H        -2.8546078985   -2.0374026276   -2.1014779966
     23  H        -3.8407651820   -1.1751449173   -0.9348711963
     24  C        -3.7087919558    1.1571650727   -2.0302810969
     25  H        -4.7194300140    1.0289066761   -2.4211609375
     26  H        -3.7974252805    1.2272615586   -0.9431135741
     27  C        -3.2290953557    2.5077025249   -2.5577309973
     28  O        -2.7211751683    2.5720772712   -3.7031217017
     29  O        -3.4341345955    3.4969745804   -1.8056642875
     30  C        -4.8067357244   -1.6227857621   -2.7698470943
     31  O        -5.0492013691   -1.1211125458   -3.8916614244
     32  O        -5.5079836708   -2.5078408387   -2.2093922508
   Point Group: c1    Number of degrees of freedom:    90


   Energy is  -1100.574572819

 Hessian updated using BFGS update

 90 Hessian modes will be used to form the next step
  Hessian Eigenvalues:
     0.000774    0.004373    0.005978    0.006404    0.007470    0.007834
     0.008880    0.009471    0.010429    0.010563    0.012382    0.035595
     0.038965    0.041560    0.043586    0.046425    0.047125    0.047419
     0.049101    0.056155    0.062069    0.064221    0.064315    0.064656
     0.066514    0.073717    0.075299    0.075743    0.077279    0.095614
     0.100262    0.102461    0.105306    0.105760    0.108312    0.129333
     0.134495    0.136250    0.138566    0.139017    0.142428    0.162048
     0.169294    0.170381    0.175478    0.220453    0.222338    0.223162
     0.231300    0.240647    0.246513    0.249647    0.250205    0.250291
     0.250559    0.252416    0.254068    0.257917    0.280602    0.299592
     0.301101    0.301581    0.305194    0.319038    0.340218    0.341395
     0.341873    0.344832    0.346656    0.348356    0.349535    0.350705
     0.351244    0.351927    0.353705    0.355735    0.376334    0.379307
     0.382688    0.384945    0.392396    0.703280    0.795872    0.798203
     0.801096    0.802316    0.818898    0.822206    0.824699    0.843995

 Minimum search - taking simple RFO step
 Searching for Lamda that Minimizes Along All modes
 Value Taken    Lamda =   0.00000000
 Step Taken.  Stepsize is  0.003527

                             Maximum     Tolerance    Cnvgd?
         Gradient           0.000006      0.000040     YES
         Displacement       0.001433      0.000100      NO
         Energy change     -0.000000      0.000000     YES

 Final energy is   -1100.57457281886     


 ******************************
 **  OPTIMIZATION CONVERGED  **
 ******************************

                       Coordinates (Angstroms)
     ATOM                X               Y               Z
      1  N         0.0070361113    0.0112452556   -0.0028478697
      2  C         0.0113241760   -0.0301938538    1.4506179123
      3  H         1.0431933075   -0.0446444249    1.8006503442
      4  H        -0.4563763991    0.8686821135    1.8722724892
      5  C         0.8879775576    1.0838958266   -0.4389221544
      6  H         0.7964983334    1.2099854995   -1.5164645983
      7  H         0.6085887128    2.0411231288    0.0188844549
      8  C        -1.3599596719    0.2801317913   -0.4579905983
      9  H        -2.0171041648   -0.4189214490    0.0552604091
     10  H        -1.6553726872    1.2939373749   -0.1564901639
     11  C        -0.6545120691   -1.2450791872    2.0924609523
     12  O        -0.8467096677   -2.2860441065    1.4214056207
     13  O        -0.9313802997   -1.1153417863    3.3150865269
     14  C         2.3804595390    0.8692694608   -0.1928109566
     15  O         2.8304862911   -0.2912286635   -0.0455315452
     16  O         3.0795029013    1.9172360261   -0.2064110820
     17  C        -1.5270524028    0.1085590964   -1.9673677156
     18  H        -1.0646520786    0.9410060409   -2.4930923243
     19  H        -1.0144864868   -0.8016686439   -2.2748244343
     20  N        -2.9115963030    0.0116477614   -2.4401102459
     21  C        -3.5562578038   -1.2087254680   -1.9912021364
     22  H        -2.8546078985   -2.0374026276   -2.1014779966
     23  H        -3.8407651820   -1.1751449173   -0.9348711963
     24  C        -3.7087919558    1.1571650727   -2.0302810969
     25  H        -4.7194300140    1.0289066761   -2.4211609375
     26  H        -3.7974252805    1.2272615586   -0.9431135741
     27  C        -3.2290953557    2.5077025249   -2.5577309973
     28  O        -2.7211751683    2.5720772712   -3.7031217017
     29  O        -3.4341345955    3.4969745804   -1.8056642875
     30  C        -4.8067357244   -1.6227857621   -2.7698470943
     31  O        -5.0492013691   -1.1211125458   -3.8916614244
     32  O        -5.5079836708   -2.5078408387   -2.2093922508

Z-matrix Print:
$molecule
-4 1
N 
C  1 1.454063
H  2 1.089718 1 108.920281
H  2 1.097504 1 111.065728 3 117.494097 0
C  1 1.454922 2 108.591929 3 -50.469732 0
H  5 1.088745 1 109.338459 2 -172.794860 0
H  5 1.097237 1 111.342971 2 -54.910549 0
C  1 1.465651 2 108.565652 3 -169.638822 0
H  8 1.088090 1 107.394231 2 -49.855741 0
H  8 1.098168 1 109.572856 2 66.651015 0
C  2 1.526842 1 116.205399 3 -118.927859 0
O  11 1.253341 2 120.175999 1 18.869906 0
O  11 1.260278 2 114.942360 1 -163.472312 0
C  5 1.527788 1 116.081197 2 68.783584 0
O  14 1.253384 5 119.983579 1 22.228629 0
O  14 1.259794 5 115.053501 1 -160.360608 0
C  8 1.528259 1 112.835229 2 -170.156148 0
H  17 1.087735 8 110.178854 1 -73.901740 0
H  17 1.088930 8 108.737761 1 43.854579 0
N  17 1.466233 8 115.410481 1 164.502518 0
C  20 1.451350 17 112.041902 8 -67.266063 0
H  21 1.091412 20 108.761395 17 -42.699869 0
H  21 1.094489 20 112.841557 17 75.531652 0
C  20 1.454541 17 112.002112 8 56.064494 0
H  24 1.091158 20 108.308049 17 179.388226 0
H  24 1.093025 20 112.036530 17 -63.093676 0
C  24 1.527175 20 115.276630 17 61.218170 0
O  27 1.254610 24 119.199335 20 34.947778 0
O  27 1.259486 24 115.928020 20 -147.958674 0
C  21 1.530173 20 115.666381 17 -161.244286 0
O  30 1.252571 21 120.368144 20 16.201895 0
O  30 1.260627 21 114.729747 20 -165.824493 0
$end

 
 --------------------------------------------------------------
 
                    Orbital Energies (a.u.)
 --------------------------------------------------------------
 
 Alpha MOs
 -- Occupied --
-19.6111 -19.6110 -19.6108 -19.6101 -19.6098 -19.6088 -19.6083 -19.6078
-14.7686 -14.7665 -10.6566 -10.6561 -10.6561 -10.6555 -10.5693 -10.5687
-10.5682 -10.5670 -10.5662 -10.5644  -1.1590  -1.1585  -1.1574  -1.1571
 -1.0574  -1.0567  -1.0561  -1.0557  -1.0389  -1.0232  -0.8440  -0.8187
 -0.8178  -0.7732  -0.7114  -0.6698  -0.6089  -0.6011  -0.5946  -0.5900
 -0.5623  -0.5537  -0.5510  -0.5448  -0.5371  -0.5318  -0.5160  -0.5136
 -0.5035  -0.4995  -0.4989  -0.4979  -0.4837  -0.4814  -0.4777  -0.4715
 -0.4583  -0.4469  -0.4414  -0.4276  -0.4095  -0.4045  -0.3921  -0.3390
 -0.3388  -0.3378  -0.3370  -0.3278  -0.3269  -0.3256  -0.3245  -0.3235
 -0.3230  -0.3218  -0.3202  -0.2895  -0.2705
 -- Virtual --
  0.0832   0.0887   0.0912   0.1025   0.1067   0.1110   0.1190   0.1250
  0.1456   0.1528   0.1581   0.1644   0.1673   0.1762   0.1885   0.1932
  0.2004   0.2083   0.2170   0.2217   0.2251   0.2355   0.2389   0.2461
  0.2510   0.2569   0.2620   0.2751   0.2811   0.2892   0.2951   0.3032
  0.3078   0.3159   0.3179   0.3204   0.3254   0.3346   0.3477   0.3571
  0.3651   0.3694   0.3715   0.3746   0.3846   0.3925   0.3955   0.4003
  0.4076   0.4171   0.4189   0.4283   0.4353   0.4362   0.4427   0.4506
  0.4557   0.4610   0.4719   0.4777   0.4855   0.4901   0.4977   0.5024
  0.5057   0.5114   0.5137   0.5173   0.5244   0.5280   0.5298   0.5351
  0.5426   0.5495   0.5504   0.5575   0.5604   0.5646   0.5712   0.5727
  0.5783   0.5820   0.5824   0.5927   0.5994   0.6009   0.6026   0.6107
  0.6154   0.6193   0.6230   0.6235   0.6300   0.6371   0.6446   0.6662
  0.6782   0.6852   0.6893   0.6952   0.7084   0.7124   0.7195   0.7247
  0.7315   0.7349   0.7428   0.7476   0.7547   0.7614   0.7733   0.7817
  0.7885   0.8032   0.8074   0.8177   0.8271   0.8410   0.8461   0.8566
  0.8682   0.8731   0.8788   0.8816   0.8986   0.9030   0.9156   0.9258
  0.9513   0.9580   0.9709   0.9741   0.9959   1.0034   1.0079   1.0109
  1.0182   1.0300   1.0322   1.0556   1.0730   1.0748   1.0923   1.0933
  1.0987   1.1068   1.1217   1.1290   1.1381   1.1411   1.1465   1.1613
  1.1696   1.1871   1.1931   1.2056   1.2121   1.2214   1.2321   1.2419
  1.2706   1.2715   1.2790   1.2982   1.3167   1.3301   1.3514   1.3661
  1.3775   1.3869   1.4002   1.4060   1.4142   1.4469   1.4622   1.4799
  1.4885   1.5116   1.5212   1.5314   1.5341   1.5400   1.5495   1.5577
  1.5627   1.5660   1.5713   1.5845   1.5861   1.5953   1.5988   1.6019
  1.6104   1.6228   1.6312   1.6333   1.6446   1.6540   1.6661   1.6723
  1.6759   1.6825   1.6889   1.7000   1.7070   1.7186   1.7244   1.7287
  1.7350   1.7432   1.7453   1.7677   1.7818   1.7939   1.8064   1.8208
  1.8316   1.8374   1.8520   1.8640   1.8766   1.8835   1.8907   1.8941
  1.8988   1.9013   1.9101   1.9178   1.9243   1.9404   1.9580   1.9617
  1.9725   1.9802   2.0049   2.0222   2.0285   2.0364   2.0445   2.0539
  2.0631   2.0746   2.0757   2.0880   2.0969   2.1033   2.1172   2.1216
  2.1356   2.1378   2.1628   2.1818   2.1982   2.2095   2.2167   2.2220
  2.2272   2.2347   2.2414   2.2521   2.2617   2.2832   2.2885   2.2945
  2.3006   2.3072   2.3123   2.3174   2.3218   2.3338   2.3424   2.3506
  2.3575   2.3619   2.3694   2.3753   2.3907   2.4089   2.4193   2.4454
  2.4666   2.4788   2.4801   2.4909   2.5087   2.5180   2.5315   2.5329
  2.5435   2.5589   2.5744   2.5791   2.5899   2.6051   2.6244   2.6347
  2.6487   2.6517   2.6736   2.6798   2.6891   2.6983   2.7004   2.7242
  2.7360   2.7391   2.7417   2.7473   2.7621   2.7714   2.7931   2.8059
  2.8113   2.8223   2.8244   2.8362   2.8383   2.8396   2.8440   2.8465
  2.8538   2.8578   2.8983   2.9246   2.9414   2.9577   2.9655   2.9834
  2.9886   2.9997   3.0049   3.0144   3.0212   3.0271   3.0314   3.0328
  3.0449   3.0551   3.0596   3.0646   3.0700   3.0797   3.0822   3.0868
  3.0919   3.1030   3.1077   3.1185   3.1293   3.1405   3.1485   3.1537
  3.1578   3.1654   3.1801   3.1940   3.1980   3.2055   3.2147   3.2278
  3.2345   3.2467   3.2582   3.2649   3.2827   3.2979   3.3064   3.3136
  3.3247   3.3351   3.3385   3.3412   3.3491   3.3539   3.3655   3.3694
  3.3768   3.3867   3.3953   3.3989   3.4116   3.4256   3.4277   3.4365
  3.4395   3.4489   3.4577   3.4615   3.4626   3.4772   3.4919   3.4938
  3.5028   3.5151   3.5263   3.5297   3.5441   3.5466   3.5572   3.5626
  3.5775   3.5870   3.5922   3.5942   3.6052   3.6128   3.6266   3.6334
  3.6474   3.6491   3.6579   3.6758   3.6855   3.6901   3.6987   3.7226
  3.7340   3.7553   3.7603   3.7864   3.8270   3.8344   3.8485   3.8543
  3.8699   3.8966   3.9197   3.9266   3.9518   3.9590   3.9733   3.9920
  4.0056   4.0150   4.0232   4.0344   4.0391   4.0576   4.0671   4.0735
  4.0985   4.1346   4.1381   4.1685   4.1775   4.1966   4.3233   4.3566
  4.3619   4.3721   4.3955   4.4161   4.4299   4.4357   4.4667   4.4859
  4.4882   4.5035   4.5090   4.5575   4.5641   4.5732   4.5904   4.6175
  4.6269   4.6532   4.6830   4.6916   4.7308   4.7472   4.7804   4.7971
  4.8103   4.8299   4.8735   4.8884   4.9328   5.0252   5.0496   5.0528
  5.0885   5.1920   5.2001   5.2012   5.2018   5.2051   5.2120   5.2188
  5.2229   5.2272   5.2297   5.2308   5.2320   5.2333   5.2345   5.2370
  5.2403   5.2577   5.2844   5.3226   5.3379   5.3642   5.3700   5.3731
  5.3948   5.4232   5.4323   5.4416   5.4630   5.4801   5.4919   5.5135
  5.5320   5.5717   5.5778   5.5801   5.5813   5.5817   5.5837   5.5978
  5.6010   5.6526   5.6568   5.6625   5.6642   5.7285   5.7407   5.7614
  5.7877   5.8434   5.8548   5.8804   5.9021   5.9412   5.9679   6.0623
  6.0631   6.0656   6.0731   6.0876   6.0932   6.1036   6.1070   6.1561
  6.1577   6.1605   6.1614   6.3424   6.3461   6.3516   6.3538   6.3753
  6.3756   6.3765   6.3773   6.4337   6.4350   6.4400   6.4408   6.4564
  6.4599   6.4631   6.4675   6.5016   6.5055   6.5174   6.5233   6.7309
  6.7350   6.7382   6.7431   6.7784   6.7797   6.7803   6.7894   6.8576
  6.8598   6.8640   6.8658   6.9425   6.9434   6.9445   6.9452   7.1010
  7.1041   7.1077   7.1086   7.1118   7.1124   7.1220   7.1263   7.1882
  7.1988   7.2019   7.2026  22.7621  22.7925  22.8054  22.8281  22.8535
 22.9088  23.6421  23.6458  23.6534  23.6577  32.9028  32.9332  44.0989
 44.1062  44.1130  44.1320  44.1368  44.1528  44.1634  44.1707
 --------------------------------------------------------------
 
          Ground-State Mulliken Net Atomic Charges

     Atom                 Charge (a.u.)
  ----------------------------------------
      1 N                    -0.181605
      2 C                    -0.336593
      3 H                     0.171653
      4 H                     0.148295
      5 C                    -0.303733
      6 H                     0.171820
      7 H                     0.142018
      8 C                    -0.293741
      9 H                     0.195208
     10 H                     0.164916
     11 C                     0.292153
     12 O                    -0.599989
     13 O                    -0.625577
     14 C                     0.284025
     15 O                    -0.601341
     16 O                    -0.623537
     17 C                    -0.284096
     18 H                     0.176899
     19 H                     0.169995
     20 N                    -0.175119
     21 C                    -0.338130
     22 H                     0.176075
     23 H                     0.139254
     24 C                    -0.344167
     25 H                     0.169829
     26 H                     0.152541
     27 C                     0.308183
     28 O                    -0.604852
     29 O                    -0.620911
     30 C                     0.297492
     31 O                    -0.600308
     32 O                    -0.626657
  ----------------------------------------
  Sum of atomic charges =    -4.000000

 -----------------------------------------------------------------
                    Cartesian Multipole Moments
 -----------------------------------------------------------------
    Charge (ESU x 10^10)
               -19.2128
    Dipole Moment (Debye)
         X      29.7943      Y       0.0284      Z      19.0202
       Tot      35.3478
    Quadrupole Moments (Debye-Ang)
        XX    -369.5442     XY     -26.4642     YY    -232.4263
        XZ    -112.0721     YZ      37.7572     ZZ    -268.4828
    Octopole Moments (Debye-Ang^2)
       XXX    1356.6530    XXY      93.1634    XYY     466.3659
       YYY    -168.8635    XXZ     680.8389    XYZ       2.0441
       YYZ     260.3848    XZZ     674.2429    YZZ     -23.4961
       ZZZ     614.2352
    Hexadecapole Moments (Debye-Ang^3)
      XXXX  -12018.2365   XXXY   -1635.1286   XXYY   -2860.3548
      XYYY     -36.8987   YYYY   -3083.6608   XXXZ   -4366.9753
      XXYZ    -306.8293   XYYZ   -1175.4926   YYYZ     751.5206
      XXZZ   -3655.8209   XYZZ    -183.5536   YYZZ   -1518.2062
      XZZZ   -3104.9697   YZZZ     705.5694   ZZZZ   -5471.8724
 -----------------------------------------------------------------
Archival summary:
1\1\smp-n24.crc.pitt.edu\OPT\ProcedureUnspecified\BasisUnspecified\821012(4-,1)\kaw112\SatNov2823:41:062020SatNov2823:41:062020\0\\#,OPT,ProcedureUnspecified,BasisUnspecified,\\-4,1\N\C,1,1.45406\H,2,1.08972,1,108.92\H,2,1.0975,1,111.066,3,117.494,0\C,1,1.45492,2,108.592,3,-50.4697,0\H,5,1.08874,1,109.338,2,-172.795,0\H,5,1.09724,1,111.343,2,-54.9105,0\C,1,1.46565,2,108.566,3,-169.639,0\H,8,1.08809,1,107.394,2,-49.8557,0\H,8,1.09817,1,109.573,2,66.651,0\C,2,1.52684,1,116.205,3,-118.928,0\O,11,1.25334,2,120.176,1,18.8699,0\O,11,1.26028,2,114.942,1,-163.472,0\C,5,1.52779,1,116.081,2,68.7836,0\O,14,1.25338,5,119.984,1,22.2286,0\O,14,1.25979,5,115.054,1,-160.361,0\C,8,1.52826,1,112.835,2,-170.156,0\H,17,1.08774,8,110.179,1,-73.9017,0\H,17,1.08893,8,108.738,1,43.8546,0\N,17,1.46623,8,115.41,1,164.503,0\C,20,1.45135,17,112.042,8,-67.2661,0\H,21,1.09141,20,108.761,17,-42.6999,0\H,21,1.09449,20,112.842,17,75.5317,0\C,20,1.45454,17,112.002,8,56.0645,0\H,24,1.09116,20,108.308,17,179.388,0\H,24,1.09302,20,112.037,17,-63.0937,0\C,24,1.52718,20,115.277,17,61.2182,0\O,27,1.25461,24,119.199,20,34.9478,0\O,27,1.25949,24,115.928,20,-147.959,0\C,21,1.53017,20,115.666,17,-161.244,0\O,30,1.25257,21,120.368,20,16.2019,0\O,30,1.26063,21,114.73,20,-165.824,0\\\@

 Total job time:  45933.58s(wall), 609684.68s(cpu) 
 Sat Nov 28 23:41:06 2020

        *************************************************************
        *                                                           *
        *  Thank you very much for using Q-Chem.  Have a nice day.  *
        *                                                           *
        *************************************************************
