                  Welcome to Q-Chem
     A Quantum Leap Into The Future Of Chemistry


 Q-Chem 5.3 (devel), Q-Chem, Inc., Pleasanton, CA (2020)

 Yihan Shao,  Zhengting Gan,  E. Epifanovsky,  A. T. B. Gilbert,  M. Wormit,  
 J. Kussmann,  A. W. Lange,  A. Behn,  Jia Deng,  Xintian Feng,  D. Ghosh,  
 M. Goldey,  P. R. Horn,  L. D. Jacobson,  I. Kaliman,  T. Kus,  A. Landau,  
 Jie Liu,  E. I. Proynov,  R. M. Richard,  R. P. Steele,  E. J. Sundstrom,  
 H. L. Woodcock III,  P. M. Zimmerman,  D. Zuev,  B. Alam,  B. Albrecht,  
 A. Aldossary,  E. Alguire,  S. A. Baeppler,  D. Barton,  Z. Benda,  
 Y. A. Bernard,  E. J. Berquist,  K. B. Bravaya,  H. Burton,  K. Carter-Fenk,  
 D. Casanova,  Chun-Min Chang,  Yunqing Chen,  A. Chien,  K. D. Closser,  
 M. P. Coons,  S. Coriani,  S. Dasgupta,  A. L. Dempwolff,  M. Diedenhofen,  
 Hainam Do,  R. G. Edgar,  Po-Tung Fang,  S. Faraji,  S. Fatehi,  
 Qingguo Feng,  J. Fosso-Tande,  J. Gayvert,  Qinghui Ge,  A. Ghysels,  
 G. Gidofalvi,  J. Gomes,  J. Gonthier,  S. Gulania,  A. Gunina,  D. Hait,  
 M. W. D. Hanson-Heine,  S. Hammes-Schiffer,  P. H. P. Harbach,  
 A. W. Hauser,  M. F. Herbst,  J. E. Herr,  E. G. Hohenstein,  Z. C. Holden,  
 S. Houck,  Kerwin Hui,  B. C. Huynh,  M. Ivanov,  T.-C. Jagau,  Hyunjun Ji,  
 B. Kaduk,  K. Khistyaev,  Jaehoon Kim,  P. Klunzinger,  K. Koh,  
 D. Kosenkov,  L. Koulias,  T. Kowalczyk,  C. M. Krauter,  A. Kunitsa,  
 Ka Un Lao,  A. Laurent,  K. V. Lawler,  Joonho Lee,  D. Lefrancois,  
 S. Lehtola,  D. S. Levine,  Yi-Pei Li,  You-Sheng Lin,  Fenglai Liu,  
 Kuan-Yu Liu,  E. Livshits,  M. Loipersberger,  A. Luenser,  A. Manjanath,  
 P. Manohar,  E. Mansoor,  S. F. Manzer,  Shan-Ping Mao,  Yuezhi Mao,  
 N. Mardirossian,  A. V. Marenich,  T. Markovich,  L. A. Martinez-Martinez,  
 S. A. Maurer,  N. J. Mayhall,  S. C. McKenzie,  J.-M. Mewes,  P. Morgante,  
 A. F. Morrison,  J. W. Mullinax,  K. Nanda,  T. S. Nguyen-Beck,  
 R. Olivares-Amaya,  K. J. Oosterbaan,  J. A. Parkhill,  S. K. Paul,  
 F. Pavosevic,  Zheng Pei,  T. M. Perrine,  F. Plasser,  P. Pokhilko,  
 S. Prager,  A. Prociuk,  E. Ramos,  B. Rana,  D. R. Rehn,  F. Rob,  
 E. Rossomme,  M. Scheurer,  M. Schneider,  N. Sergueev,  S. M. Sharada,  
 S. Sharma,  W. Skomorowski,  D. W. Small,  T. Stauch,  C. J. Stein,  
 T. Stein,  Yu-Chuan Su,  S. P. Veccham,  Zhen Tao,  A. J. W. Thom,  
 A. Tkatchenko,  T. Tsuchimochi,  N. M. Tubman,  L. Vogt,  M. L. Vidal,  
 O. Vydrov,  M. A. Watson,  J. Wenzel,  M. de Wergifosse,  T. A. Wesolowski,  
 A. White,  J. Witte,  A. Yamada,  Jun Yang,  K. Yao,  S. Yeganeh,  
 S. R. Yost,  Zhi-Qiang You,  A. Zech,  Igor Ying Zhang,  Xing Zhang,  
 Yan Zhao,  Ying Zhu,  B. R. Brooks,  G. K. L. Chan,  C. J. Cramer,  
 M. S. Gordon,  W. J. Hehre,  A. Klamt,  M. W. Schmidt,  C. D. Sherrill,  
 D. G. Truhlar,  A. Aspuru-Guzik,  R. Baer,  A. T. Bell,  N. A. Besley,  
 Jeng-Da Chai,  A. E. DePrince, III,  R. A. DiStasio Jr.,  A. Dreuw,  
 B. D. Dunietz,  T. R. Furlani,  Chao-Ping Hsu,  Yousung Jung,  Jing Kong,  
 D. S. Lambrecht,  WanZhen Liang,  C. Ochsenfeld,  V. A. Rassolov,  
 L. V. Slipchenko,  J. E. Subotnik,  T. Van Voorhis,  J. M. Herbert,  
 A. I. Krylov,  P. M. W. Gill,  M. Head-Gordon

 Contributors to earlier versions of Q-Chem not listed above: 
 R. D. Adamson,  B. Austin,  J. Baker,  G. J. O. Beran,  K. Brandhorst,  
 S. T. Brown,  E. F. C. Byrd,  A. K. Chakraborty,  C.-L. Cheng,  
 Siu Hung Chien,  D. M. Chipman,  D. L. Crittenden,  H. Dachsel,  
 R. J. Doerksen,  A. D. Dutoi,  L. Fusti-Molnar,  W. A. Goddard III,  
 A. Golubeva-Zadorozhnaya,  S. R. Gwaltney,  G. Hawkins,  A. Heyden,  
 S. Hirata,  G. Kedziora,  F. J. Keil,  C. Kelley,  Jihan Kim,  R. A. King,  
 R. Z. Khaliullin,  P. P. Korambath,  W. Kurlancheek,  A. M. Lee,  M. S. Lee,  
 S. V. Levchenko,  Ching Yeh Lin,  D. Liotard,  R. C. Lochan,  I. Lotan,  
 P. E. Maslen,  N. Nair,  D. P. O'Neill,  D. Neuhauser,  E. Neuscamman,  
 C. M. Oana,  R. Olson,  B. Peters,  R. Peverati,  P. A. Pieniazek,  
 Y. M. Rhee,  J. Ritchie,  M. A. Rohrdanz,  E. Rosta,  N. J. Russ,  
 H. F. Schaefer III,  N. E. Schultz,  N. Shenvi,  A. C. Simmonett,  A. Sodt,  
 D. Stuck,  K. S. Thanthiriwatte,  V. Vanovschi,  Tao Wang,  A. Warshel,  
 C. F. Williams,  Q. Wu,  X. Xu,  W. Zhang

 Please cite Q-Chem as follows:
 Y. Shao et al., Mol. Phys. 113, 184-215 (2015)
 DOI: 10.1080/00268976.2014.952696

 Q-Chem 5.3.2 for Intel X86 EM64T Linux

 Parts of Q-Chem use Armadillo 9.800.1 (Horizon Scraper).
 http://arma.sourceforge.net/

Compilation information
-----------------------

 SVN revision             | 35073
 SVN branch               | trunk
 Last SVN revision        | 35050
 Last SVN author          | cherri
 Hostname                 | osmium
 User                     | eric
 System                   | Linux-5.8.14-arch1-1
 Processor                | x86_64
 Compiler                 | GNU
 C compiler version       | 9.3.0
 CXX compiler version     | 9.3.0
 Fortran compiler version | 9.3.0
 Configuration time       | 2020-11-24 22:24:11


 Q-Chem begins on Fri Dec 18 22:33:24 2020  

Host: osmium
0

     Scratch files written to /tmp/qchem/qchem3002474//
Processing $rem in /home/eric/data/opt/apps/qchem/archive/r35050-g9.3.0-openblas/config/preferences:
Processing $rem in /home/eric/.qchemrc:
Symmetry turned off for PCM/SM12/SMD calculation

 Q-Chem warning in module libgen/rem_setup.C, line 2945:

 Neither GIA nor STOLL is specified by user. Use STOLL as the default


Checking the input file for inconsistencies... 	...done.

--------------------------------------------------------------
User input:
--------------------------------------------------------------
$molecule
-2 1
--
2 1
Ca        0.0543229101   -0.0327779225   -0.0312034133
--
-4 1
O        -0.0185516669   -0.0484139678    2.2858398064
C         1.0434787209   -0.0257675904    2.9763132681
O         1.0901634555   -0.1655757443    4.2124671417
C         2.3567595720    0.2694891044    2.2583307354
H         3.1813848383   -0.1711062371    2.8227574690
H         2.4642612837    1.3532619904    2.3237598206
N         2.4064242959   -0.1242571357    0.8502270661
C         3.1621699355    0.8471709219    0.0690210976
H         3.3717814387    0.4251978609   -0.9140137581
H         4.1171306051    1.1043783631    0.5322440229
C         2.9135246599   -1.4908772679    0.6790680428
H         3.1675513663   -1.6281200022   -0.3694600518
H         3.8300985102   -1.6422492106    1.2577419866
C         1.8857365347   -2.5256403883    1.0987204732
H         1.6057928587   -2.3657791640    2.1374950639
H         2.3346878160   -3.5214088152    1.0354742778
N         0.6721520858   -2.4491709097    0.2765713429
C        -0.4733988078   -3.0819200710    0.9193994109
H        -0.4629159346   -2.8410061379    1.9817988095
H        -0.4545787829   -4.1695199385    0.8260770296
C         0.8821795535   -3.0051556261   -1.0605886033
H        -0.0755632125   -3.3636171923   -1.4422419511
H         1.5607316127   -3.8601559146   -1.0330515005
C         1.3650500362   -2.0163329995   -2.1170904776
O         2.0019819723   -2.4798096395   -3.0807198022
O         1.0363004999   -0.7993647507   -1.9855048119
C         2.3723812082    2.1281769734   -0.1941387098
O         3.0224787299    3.1616039644   -0.4325150320
O         1.1055845485    2.0510657953   -0.2018491460
C        -1.8089339665   -2.5639705026    0.3875425614
O        -2.8042521681   -3.2932486923    0.5467429520
O        -1.8332850611   -1.4099175481   -0.1393823041
$end

$rem
 jobtype = eda
 method = m05-2x
 basis = def2-tzvp
 mem_static = 1000
 mem_total = 16000
 solvent_method = smd
$end
--------------------------------------------------------------
 ----------------------------------------------------------------
             Standard Nuclear Orientation (Angstroms)
    I     Atom           X                Y                Z
 ----------------------------------------------------------------
    1      Ca      0.0543229101    -0.0327779225    -0.0312034133
    2      O      -0.0185516669    -0.0484139678     2.2858398064
    3      C       1.0434787209    -0.0257675904     2.9763132681
    4      O       1.0901634555    -0.1655757443     4.2124671417
    5      C       2.3567595720     0.2694891044     2.2583307354
    6      H       3.1813848383    -0.1711062371     2.8227574690
    7      H       2.4642612837     1.3532619904     2.3237598206
    8      N       2.4064242959    -0.1242571357     0.8502270661
    9      C       3.1621699355     0.8471709219     0.0690210976
   10      H       3.3717814387     0.4251978609    -0.9140137581
   11      H       4.1171306051     1.1043783631     0.5322440229
   12      C       2.9135246599    -1.4908772679     0.6790680428
   13      H       3.1675513663    -1.6281200022    -0.3694600518
   14      H       3.8300985102    -1.6422492106     1.2577419866
   15      C       1.8857365347    -2.5256403883     1.0987204732
   16      H       1.6057928587    -2.3657791640     2.1374950639
   17      H       2.3346878160    -3.5214088152     1.0354742778
   18      N       0.6721520858    -2.4491709097     0.2765713429
   19      C      -0.4733988078    -3.0819200710     0.9193994109
   20      H      -0.4629159346    -2.8410061379     1.9817988095
   21      H      -0.4545787829    -4.1695199385     0.8260770296
   22      C       0.8821795535    -3.0051556261    -1.0605886033
   23      H      -0.0755632125    -3.3636171923    -1.4422419511
   24      H       1.5607316127    -3.8601559146    -1.0330515005
   25      C       1.3650500362    -2.0163329995    -2.1170904776
   26      O       2.0019819723    -2.4798096395    -3.0807198022
   27      O       1.0363004999    -0.7993647507    -1.9855048119
   28      C       2.3723812082     2.1281769734    -0.1941387098
   29      O       3.0224787299     3.1616039644    -0.4325150320
   30      O       1.1055845485     2.0510657953    -0.2018491460
   31      C      -1.8089339665    -2.5639705026     0.3875425614
   32      O      -2.8042521681    -3.2932486923     0.5467429520
   33      O      -1.8332850611    -1.4099175481    -0.1393823041
 ----------------------------------------------------------------
 Nuclear Repulsion Energy =        2193.05626762 hartrees
 There are       86 alpha and       86 beta electrons
 Requested basis set is def2-TZVP
 There are 282 shells and 728 basis functions

 Total QAlloc Memory Limit  16000 MB
 Mega-Array Size       978 MB
 MEM_STATIC part      1000 MB

 Citation of the SMD model:
 Marenich, A.V.; Cramer, C.J.; Truhlar, D.G.
 J. Phys. Chem. B 2009, 113, 6378-6396.
 iSolventCode=           1
 Solvent: water                                                           

 vradii
            1           2           3           4           5           6
    1   2.7257999   1.5200000   1.8500000   1.5200000   1.8500000   1.2000000
            7           8           9          10          11          12
    1   1.2000000   1.8900000   1.8500000   1.2000000   1.2000000   1.8500000
           13          14          15          16          17          18
    1   1.2000000   1.2000000   1.8500000   1.2000000   1.2000000   1.8900000
           19          20          21          22          23          24
    1   1.8500000   1.2000000   1.2000000   1.8500000   1.2000000   1.2000000
           25          26          27          28          29          30
    1   1.8500000   1.5200000   1.5200000   1.8500000   1.5200000   1.5200000
           31          32          33
    1   1.8500000   1.5200000   1.5200000
 Changing PCM_VDW_RADII to SMD_RADIUS
 Discretize the solute cavity surface with Lebedev spheres
	Using 110 Lebedev grid points for each H atom
	Using 194 Lebedev grid points for other atoms
	Atomic van der Waals radii will be scaled by 1.20
 Remove points where switching function is < 1.0e-08
 Keep 2263 surface tesserae and discard 3131 interior tesserae
 Molecular Surface Area = 266.218 Angst**2
 A cutoff of  1.0D-11 yielded  29249 shell pairs
 There are    187523 function pairs (    239106 Cartesian)
 Smallest overlap matrix eigenvalue = 7.13E-05

 Scale SEOQF with 1.000000e-01/1.000000e-01/1.000000e-01

 Standard Electronic Orientation quadrupole field applied
 Nucleus-field energy     =     0.0000000177 hartrees

 -----------------------------------------------------------------------
  General SCF calculation program by
  Eric Jon Sundstrom, Paul Horn, Yuezhi Mao, Dmitri Zuev, Alec White,
  David Stuck, Shaama M.S., Shane Yost, Joonho Lee, David Small,
  Daniel Levine, Susi Lehtola, Hugh Burton, Evgeny Epifanovsky,
  Bang C. Huynh
 -----------------------------------------------------------------------
================================================================
                 ALMO-EDA with the EDA2 driver                  
================================================================
 The second-generation ALMO-EDA (for DFT):                      
 P. R. Horn, Y. Mao and M. Head-Gordon, PCCP, 18, 23067 (2016)  
 Decomposition of the frozen energy:                            
 P. R. Horn, Y. Mao and M. Head-Gordon, JCP, 144, 114107 (2016) 
Using eda2 option set 2
Option set summary: Frozen orbital wavefunction, initial wavefunction decomposition, and traditional AO-based POL.
--------------------------------
Printing EDA Options
--------------------------------
eda_child_super_basis      0
fragmo_guess_mode          0
child_mp                   0
child_mp_orders            0
cls_elec                   1
cls_disp                   0
scfmi_mode                 1
scfmi_occs                 0
scfmi_virts                0
frz_relax                  0
frz_relax_method           0
dc_pen_start               0
dc_pen_conv                0
dc_pen_increment           0
dc_pen_steps               0
dc_pen_thresh_factor       0
dc_pen_pre_newton_thresh   0
frz_ortho_decomp           1
frz_ortho_decomp_conv      6
plot_mo_ortho_frz          0
frgm_method                2
scfmi_freeze_ss            0
separate_rehyb             0
plot_diff_den              0
eda_nocv                   0
eda_vct_relax              1
disp_free_x                0
disp_free_c                0
eda_bsse                   0
eda_pct_a                  1
eda_covp                   0
--------------------------------
Attempting to make child job directory: /tmp/qchem/qchem3002474//Frg1/
Attempting to make child job directory: /tmp/qchem/qchem3002474//Frg2/
Creating input file /tmp/qchem/qchem3002474/Frg1.input
using default PutDataFrgm: nothing
calling putenv with: QCSCRATCH=/tmp/qchem/qchem3002474/ 
Spawning Job For Fragment 0
Done Job For Fragment 0
calling putenv with: QCSCRATCH=/tmp/qchem 
calling putenv with: QCTHREADS=12 
Creating input file /tmp/qchem/qchem3002474/Frg2.input
using default PutDataFrgm: nothing
calling putenv with: QCSCRATCH=/tmp/qchem/qchem3002474/ 
Spawning Job For Fragment 1
Done Job For Fragment 1
calling putenv with: QCSCRATCH=/tmp/qchem 
calling putenv with: QCTHREADS=12 
Doing General SCFMI
 Exchange:     0.5600 Hartree-Fock + 1.0000 M05-2X
 Correlation:  1.0000 M05-2X
 Using SG-3 standard quadrature grid
performing fock build before subrot guess so that all methods have access
Printing subrot_rss_gen Method Specification:
Occupied Subspace Method is 0
Virtual Subspace Method is 0
Energy of the unrelaxed supersystem initial determinant -1777.727563710660
performing fock build before subrot guess so that all methods have access
Printing subrot_rss_gen Method Specification:
Occupied Subspace Method is 0
Virtual Subspace Method is 0
Energy of the unrelaxed supersystem initial determinant w/ solvent -1778.054877993778
write pseudocanon occs and virts to disk
write pseudocanon orbital energies to disk
Tolerance of ortho_decomp_scf: 1.00e-06
GDM subspace size: 20
Beginning the Orthogonal Decomposition of the Initial Supersystem Wavefunction
    1   -1775.8889429664      3.17e-01     ortho_decomp Preconditoned Steepest Descent
    2   -1776.0125379482      2.15e-03     ortho_decomp BFGS Step
    3   -1776.0125665107      6.93e-05     ortho_decomp BFGS Step
    4   -1776.0125665424      2.45e-06     ortho_decomp BFGS Step
    5   -1776.0125665425      4.24e-08     ortho_decomp 00000 Convergence criterion met
 Hartree-Fock
 Hartree-Fock
 Hartree-Fock
Doing General SCFMI
 Exchange:     0.5600 Hartree-Fock + 1.0000 M05-2X
 Correlation:  1.0000 M05-2X
 Using SG-3 standard quadrature grid
performing fock build at end of subrot_r(subrot) constructor so that all methods have access
<S^2> of initial wavefunction before polarization iterations 0.0000000000
Beginning iterations for the determination of the polarized wavefunction
Energy prior to optimization (guess energy) = -1778.054877993778
Begin Timing: Total SCF Calculation
begin iterations for algorithm: DIIS         
the SCF tolerance is set to 1.00e-08
    1   -1778.0548779938      3.90e-04     00000 
    2   -1778.0881613415      2.76e-04     00000 
    3   -1778.1014319664      1.19e-04     00000 
    4   -1778.1036484456      3.11e-05     00000 
    5   -1778.1037935409      1.31e-05     00000 
    6   -1778.1038201942      7.12e-06     00000 
    7   -1778.1038281149      3.99e-06     00000 
    8   -1778.1038306570      2.26e-06     00000 
    9   -1778.1038314655      1.18e-06     00000 
   10   -1778.1038316514      6.64e-07     00000 
   11   -1778.1038317114      3.39e-07     00000 
   12   -1778.1038317286      1.54e-07     00000 
   13   -1778.1038317332      6.69e-08     00000 
   14   -1778.1038317343      3.83e-08     00000 
   15   -1778.1038317347      2.40e-08     00000 
   16   -1778.1038317348      1.43e-08     00000 
   17   -1778.1038317349      5.87e-09     00000 Convergence criterion met
write pseudocanon occs and virts to disk
write pseudocanon orbital energies to disk
Timing for Total SCF: 632.00s (wall), 6603.18s (cpu)
<S^2> of polarized wavefunction after polarization iterations 0.0000000000
relaxing scfmi constraint to allow all rotations in the entire AO span
Doing General SCFMI
 Exchange:     0.5600 Hartree-Fock + 1.0000 M05-2X
 Correlation:  1.0000 M05-2X
 Using SG-3 standard quadrature grid
performing fock build at end of subrot_r(subrot) constructor so that all methods have access
<S^2> of polarized wavefunction before ct-allowed iterations 0.0000000000
Beginning iterations for the determination of the CT-Allowed wavefunction
Energy prior to optimization (guess energy) = -1778.103831734821
Begin Timing: Total SCF Calculation
begin iterations for algorithm: DIIS         
the SCF tolerance is set to 1.00e-08
    1   -1778.1038317348      2.87e-04     00000 
    2   -1778.1418368899      5.75e-05     00000 
    3   -1778.1427387694      3.62e-05     00000 
    4   -1778.1429537811      1.39e-05     00000 
    5   -1778.1429858494      3.92e-06     00000 
    6   -1778.1429888467      1.32e-06     00000 
    7   -1778.1429891459      3.24e-07     00000 
    8   -1778.1429891691      8.07e-08     00000 
    9   -1778.1429891710      2.80e-08     00000 
   10   -1778.1429891712      8.44e-09     00000 Convergence criterion met
write pseudocanon occs and virts to disk
write pseudocanon orbital energies to disk
Timing for Total SCF: 356.00s (wall), 3722.83s (cpu)
<S^2> of ct_allowed wavefunction after ct-allowed iterations 0.0000000000
Perturbative CTA
Number of subspaces: 2
Appending the orthogonal complement of the current SCFMI subspace
Number of subspaces in CTA becomes 2
Doing General SCFMI
 Exchange:     0.5600 Hartree-Fock + 1.0000 M05-2X
 Correlation:  1.0000 M05-2X
 Using SG-3 standard quadrature grid
performing fock build at end of subrot_r(subrot) constructor so that all methods have access
PCT method is RS
Max deviation in Fvo + FvvXvo - XvoFoo - XvoFovXvo is 8.63e-10
X in RS PT satisfies the quadratic equation

================================
        Results of EDA2         
================================
Basic EDA Quantities
--------------------
Fragment Energies (Ha):
1 -677.2692931592
2-1100.5607537209
--------------------
  E_prp (kJ/mol) = 0.0000
  E_sol (kJ/mol) = 3247.3529
  E_frz (kJ/mol) = -3797.0846 (internal)
  E_pol (kJ/mol) = -128.5296
  E_vct (kJ/mol) = -102.8091
  E_int (kJ/mol) = -781.0703
--------------------


Decomposition of frozen interaction energy
--------------------
  --------------------
  Orthogonal Frozen Decomposition:
  --------------------
     E_elec   (ELEC)   (kJ/mol) = -4348.4347
     E_pauli  (PAULI)  (kJ/mol) = 606.6324
     E_disp   (DISP)   (kJ/mol) = -55.2823
  --------------------
  Classical Frozen Decomposition:
  --------------------
     E_cls_elec  (CLS ELEC)  (kJ/mol) = -4342.8967
     E_mod_pauli (MOD PAULI) (kJ/mol) = 601.0944 (FRZ - CLS ELEC - DISP)
     E_disp      (DISP)      (kJ/mol) = -55.2823
  --------------------
--------------------

--------------------
Perturbative CT Analysis:
--------------------
  E_pct (kJ/mol) = -90.1747
  E_HO  (kJ/mol) = -12.6344 (VCT - PCT) 
  ---------------  
  PCT Energy lowering  (row to column, kJ/mol)
            1           2    
    1    0.000197   -2.671961
    2  -87.502822   -0.000070
  PCT Charge displacement (row to column, me-)
            1           2    
    1   -0.052914    0.281648
    2   53.861519   -6.677999
--------------------

Simplified EDA Summary (kJ/mol)
--------------------
 PREPARATION      0.0000
 SOLVATION        3247.3529
 FROZEN(INTERNAL) -3797.0846 (ELEC + PAULI + DISP)
[ELEC + PAULI = -3741.8023, DISP = -55.2823]
 POLARIZATION    -128.5296
 CHARGE TRANSFER -102.8091
 TOTAL           -781.0703     (PRP + SOL + FRZ + POL + CT)
--------------------

 --------------------------------------------------------------

                    Orbital Energies (a.u.)
 --------------------------------------------------------------

 Alpha MOs
 -- Occupied --
******** -19.6337 -19.6337 -19.6334 -19.6330 -19.6259 -19.6258 -19.6256
-19.6255 -15.7424 -14.7928 -14.7928 -12.8482 -12.8478 -12.8475 -10.6745
-10.6745 -10.6744 -10.6742 -10.5858 -10.5857 -10.5848 -10.5846 -10.5839
-10.5835  -1.8380  -1.1815  -1.1802  -1.1799  -1.1776  -1.0981  -1.0979
 -1.0923  -1.0794  -1.0724  -1.0555  -1.0544  -1.0526  -1.0392  -0.8695
 -0.8378  -0.8357  -0.7881  -0.7326  -0.6792  -0.6255  -0.6188  -0.6153
 -0.6141  -0.5926  -0.5835  -0.5718  -0.5599  -0.5582  -0.5490  -0.5346
 -0.5317  -0.5271  -0.5236  -0.5173  -0.5167  -0.5086  -0.4991  -0.4979
 -0.4841  -0.4836  -0.4628  -0.4460  -0.4417  -0.4329  -0.4320  -0.4051
 -0.3643  -0.3607  -0.3591  -0.3574  -0.3566  -0.3561  -0.3523  -0.3472
 -0.3438  -0.3414  -0.3387  -0.3356  -0.3126  -0.3064
 -- Virtual --
  0.0430   0.0611   0.0635   0.0664   0.0760   0.0800   0.0876   0.0876
  0.1190   0.1204   0.1258   0.1331   0.1366   0.1453   0.1512   0.1541
  0.1672   0.1717   0.1741   0.1785   0.1790   0.1827   0.1855   0.1933
  0.1964   0.2080   0.2118   0.2156   0.2240   0.2246   0.2322   0.2440
  0.2448   0.2470   0.2642   0.2665   0.2681   0.2690   0.2824   0.2931
  0.2955   0.2982   0.3116   0.3124   0.3254   0.3264   0.3366   0.3397
  0.3415   0.3496   0.3529   0.3587   0.3631   0.3657   0.3694   0.3724
  0.3834   0.3887   0.3898   0.3995   0.4130   0.4192   0.4226   0.4320
  0.4368   0.4372   0.4436   0.4537   0.4573   0.4605   0.4611   0.4747
  0.4785   0.4837   0.4844   0.4889   0.4917   0.4942   0.5024   0.5046
  0.5100   0.5104   0.5158   0.5179   0.5295   0.5346   0.5384   0.5428
  0.5495   0.5522   0.5641   0.5708   0.5715   0.5738   0.5900   0.5942
  0.5966   0.6003   0.6015   0.6098   0.6126   0.6185   0.6230   0.6313
  0.6338   0.6423   0.6469   0.6512   0.6552   0.6693   0.6728   0.7010
  0.7082   0.7133   0.7147   0.7254   0.7342   0.7432   0.7468   0.7516
  0.7551   0.7683   0.7720   0.7762   0.7801   0.8021   0.8111   0.8159
  0.8262   0.8422   0.8440   0.8513   0.8655   0.8668   0.8858   0.8863
  0.8957   0.9097   0.9127   0.9229   0.9279   0.9491   0.9494   0.9556
  0.9590   0.9714   0.9758   0.9840   0.9844   0.9926   1.0015   1.0096
  1.0124   1.0202   1.0415   1.0567   1.0588   1.0760   1.0798   1.0917
  1.0968   1.0980   1.1151   1.1200   1.1317   1.1400   1.1539   1.1545
  1.1689   1.1698   1.1773   1.1851   1.1942   1.2039   1.2126   1.2260
  1.2440   1.2500   1.2576   1.2803   1.2899   1.2904   1.2977   1.3198
  1.3308   1.3330   1.3489   1.3762   1.3815   1.3876   1.4002   1.4237
  1.4438   1.4516   1.4518   1.4622   1.4657   1.4789   1.4822   1.5137
  1.5162   1.5302   1.5412   1.5437   1.5449   1.5487   1.5524   1.5736
  1.5777   1.5898   1.6054   1.6087   1.6147   1.6180   1.6222   1.6272
  1.6444   1.6475   1.6503   1.6557   1.6658   1.6714   1.6778   1.6950
  1.7040   1.7106   1.7223   1.7248   1.7282   1.7395   1.7621   1.7686
  1.7699   1.7857   1.7887   1.8020   1.8087   1.8133   1.8222   1.8294
  1.8353   1.8589   1.8732   1.8868   1.8951   1.9018   1.9165   1.9232
  1.9254   1.9443   1.9570   1.9602   1.9756   1.9806   1.9828   1.9931
  2.0077   2.0237   2.0256   2.0331   2.0493   2.0539   2.0559   2.0690
  2.0712   2.0795   2.0932   2.0976   2.1209   2.1216   2.1250   2.1409
  2.1486   2.1545   2.1581   2.1755   2.1801   2.1950   2.1994   2.2037
  2.2163   2.2170   2.2288   2.2419   2.2446   2.2556   2.2654   2.2945
  2.2965   2.3019   2.3051   2.3209   2.3301   2.3518   2.3552   2.3561
  2.3676   2.3700   2.3916   2.4057   2.4207   2.4334   2.4389   2.4499
  2.4560   2.4768   2.4806   2.4987   2.5044   2.5131   2.5234   2.5297
  2.5402   2.5576   2.5676   2.5711   2.5814   2.5919   2.6097   2.6284
  2.6389   2.6538   2.6583   2.6724   2.6750   2.6793   2.6871   2.7025
  2.7149   2.7227   2.7310   2.7487   2.7501   2.7711   2.7727   2.7856
  2.7878   2.8018   2.8037   2.8119   2.8261   2.8521   2.8555   2.8646
  2.8685   2.8778   2.8793   2.9014   2.9032   2.9057   2.9131   2.9245
  2.9380   2.9739   2.9822   3.0021   3.0194   3.0276   3.0311   3.0379
  3.0522   3.0534   3.0581   3.0639   3.0736   3.0820   3.0881   3.0891
  3.0980   3.1004   3.1181   3.1199   3.1278   3.1326   3.1330   3.1416
  3.1437   3.1603   3.1620   3.1743   3.1767   3.1922   3.2025   3.2067
  3.2163   3.2268   3.2428   3.2522   3.2632   3.2672   3.2742   3.3002
  3.3018   3.3093   3.3275   3.3390   3.3449   3.3500   3.3572   3.3593
  3.3639   3.3692   3.3716   3.3777   3.3863   3.3997   3.4029   3.4206
  3.4233   3.4290   3.4340   3.4394   3.4466   3.4508   3.4618   3.4654
  3.4757   3.4923   3.5029   3.5107   3.5202   3.5355   3.5441   3.5525
  3.5555   3.5631   3.5722   3.5802   3.5843   3.5876   3.5910   3.5992
  3.6079   3.6278   3.6375   3.6529   3.6576   3.6689   3.6819   3.7080
  3.7171   3.7254   3.7303   3.7580   3.7699   3.7876   3.8110   3.8153
  3.8311   3.8381   3.8638   3.8862   3.9194   3.9511   3.9514   3.9623
  3.9678   3.9739   3.9808   3.9964   3.9986   4.0209   4.0275   4.0320
  4.0516   4.0758   4.0800   4.0925   4.1060   4.1125   4.1573   4.1631
  4.1959   4.2735   4.3079   4.3617   4.3973   4.4161   4.4211   4.4358
  4.4372   4.4425   4.5009   4.5268   4.5460   4.5512   4.5662   4.5825
  4.5933   4.6066   4.6112   4.6255   4.6405   4.6668   4.6688   4.6938
  4.7434   4.8009   4.8044   4.8068   4.8113   4.8601   4.8737   4.9280
  5.0670   5.0913   5.1183   5.1275   5.1650   5.1739   5.1842   5.1852
  5.1862   5.1976   5.1992   5.2029   5.2099   5.2118   5.2148   5.2168
  5.2212   5.2234   5.2262   5.2341   5.2629   5.2758   5.2864   5.3202
  5.3308   5.3407   5.3665   5.3821   5.3954   5.4018   5.4132   5.4370
  5.4395   5.4458   5.4894   5.5217   5.5501   5.5503   5.5573   5.5626
  5.5633   5.5707   5.5752   5.5782   5.6467   5.6520   5.6543   5.6545
  5.6999   5.7249   5.7533   5.7604   5.8317   5.8431   5.8533   5.8594
  5.8791   5.9032   6.0460   6.0506   6.0597   6.0681   6.0896   6.0916
  6.1030   6.1045   6.1475   6.1499   6.1545   6.1606   6.3377   6.3536
  6.3578   6.3589   6.3654   6.3673   6.3724   6.3731   6.4459   6.4480
  6.4497   6.4557   6.4583   6.4773   6.4857   6.4924   6.5185   6.5442
  6.5461   6.5589   6.7256   6.7295   6.7354   6.7368   6.7682   6.7698
  6.7893   6.7966   6.8434   6.8445   6.8531   6.8607   6.9543   6.9592
  6.9712   6.9721   7.0995   7.1119   7.1186   7.1235   7.1346   7.1382
  7.1447   7.1465   7.1763   7.1805   7.1850   7.1859  22.7441  22.7809
 22.7915  22.8264  22.8546  22.8598  23.6497  23.6539  23.6699  23.6771
 33.0248  33.0693  44.1361  44.1397  44.1837  44.1863  44.1943  44.2258
 44.2571  44.2836
 --------------------------------------------------------------

          Ground-State Mulliken Net Atomic Charges

     Atom                 Charge (a.u.)
  ----------------------------------------
      1 Ca                    2.000000
      2 O                    -0.757798
      3 C                     0.389764
      4 O                    -0.565241
      5 C                    -0.246557
      6 H                     0.169645
      7 H                     0.191698
      8 N                    -0.519991
      9 C                    -0.266328
     10 H                     0.185449
     11 H                     0.167826
     12 C                    -0.205867
     13 H                     0.202086
     14 H                     0.181525
     15 C                    -0.201816
     16 H                     0.201033
     17 H                     0.181212
     18 N                    -0.520142
     19 C                    -0.267091
     20 H                     0.184184
     21 H                     0.169163
     22 C                    -0.245016
     23 H                     0.192563
     24 H                     0.167767
     25 C                     0.390839
     26 O                    -0.564073
     27 O                    -0.759698
     28 C                     0.392931
     29 O                    -0.562701
     30 O                    -0.758129
     31 C                     0.394246
     32 O                    -0.563646
     33 O                    -0.757835
  ----------------------------------------
  Sum of atomic charges =    -2.000000

 -----------------------------------------------------------------
                    Cartesian Multipole Moments
 -----------------------------------------------------------------
    Charge (ESU x 10^10)
                -9.6064
    Dipole Moment (Debye)
         X      -0.3906      Y       0.3142      Z      -0.1607
       Tot       0.5264
    Quadrupole Moments (Debye-Ang)
        XX    -182.4219     XY     -48.3000     YY    -194.4924
        XZ      25.4315     YZ     -10.8366     ZZ    -219.1321
    Octopole Moments (Debye-Ang^2)
       XXX    -330.9697    XXY     132.6310    XYY    -148.0487
       YYY     269.8433    XXZ       2.3129    XYZ     -42.2743
       YYZ      14.3593    XZZ    -225.0623    YZZ     180.7738
       ZZZ    -258.6449
    Hexadecapole Moments (Debye-Ang^3)
      XXXX   -3313.8387   XXXY    -746.2566   XXYY   -1621.4834
      XYYY    -845.9129   YYYY   -3871.2240   XXXZ     122.2017
      XXYZ     -37.7525   XYYZ     200.8128   YYYZ     -85.4430
      XXZZ   -1046.3711   XYZZ      60.9992   YYZZ   -1089.6884
      XZZZ     -45.9579   YZZZ    -257.2731   ZZZZ   -3726.2195
 -----------------------------------------------------------------
Archival summary:
1\1\osmium\SP\ProcedureUnspecified\BasisUnspecified\a1821012(2-,1)\eric\FriDec1823:02:332020FriDec1823:02:332020\0\\#,ProcedureUnspecified,BasisUnspecified,\\-2,1\Ca\O,1,2.31759\C,2,1.26744,1,121\O,3,1.24462,2,124.797,1,-173.216,0\C,3,1.52549,2,117.929,1,10.3713,0\H,5,1.09152,3,104.386,2,90.5133,0\H,5,1.09189,3,109.167,2,-155.049,0\N,5,1.46329,3,115.595,2,-28.6491,0\C,8,1.45804,5,110.534,3,144.061,0\H,9,1.08942,8,109.052,5,166.109,0\H,9,1.09176,8,112.401,5,46.7924,0\C,8,1.46784,5,111.923,3,-89.9094,0\H,12,1.08765,8,108.329,5,-164.384,0\H,12,1.09413,8,110.75,5,-47.1667,0\C,12,1.51763,8,111.686,5,74.6087,0\H,15,1.08756,12,109.8,8,-57.8308,0\H,15,1.09448,12,109.066,8,-175.092,0\N,15,1.46768,12,111.632,8,62.0335,0\C,18,1.45777,15,112.264,12,-161.116,0\H,19,1.09012,18,108.965,15,41.5329,0\H,19,1.0921,18,112.517,15,-77.9511,0\C,18,1.46296,15,111.999,12,73.5743,0\H,22,1.09106,18,108.767,15,152.311,0\H,22,1.09211,18,111.298,15,34.4539,0\C,22,1.52558,18,115.475,15,-90.7522,0\O,25,1.24491,22,117.179,18,154.986,0\O,25,1.26696,22,117.942,18,-28.2636,0\C,19,1.52774,18,112.523,15,158.278,0\O,28,1.24395,19,117.35,18,156.294,0\O,28,1.26916,19,117.782,18,-26.208,0\C,9,1.528,8,112.715,5,-76.6628,0\O,31,1.24413,9,117.13,8,158.394,0\O,31,1.26889,9,118.009,8,-23.9906,0\\\@

 Total job time:  1748.90s(wall), 16895.96s(cpu) 
 Fri Dec 18 23:02:33 2020

        *************************************************************
        *                                                           *
        *  Thank you very much for using Q-Chem.  Have a nice day.  *
        *                                                           *
        *************************************************************


