                  Welcome to Q-Chem
     A Quantum Leap Into The Future Of Chemistry


 Q-Chem 5.3 (devel), Q-Chem, Inc., Pleasanton, CA (2020)

 Yihan Shao,  Zhengting Gan,  E. Epifanovsky,  A. T. B. Gilbert,  M. Wormit,  
 J. Kussmann,  A. W. Lange,  A. Behn,  Jia Deng,  Xintian Feng,  D. Ghosh,  
 M. Goldey,  P. R. Horn,  L. D. Jacobson,  I. Kaliman,  T. Kus,  A. Landau,  
 Jie Liu,  E. I. Proynov,  R. M. Richard,  R. P. Steele,  E. J. Sundstrom,  
 H. L. Woodcock III,  P. M. Zimmerman,  D. Zuev,  B. Alam,  B. Albrecht,  
 A. Aldossary,  E. Alguire,  S. A. Baeppler,  D. Barton,  Z. Benda,  
 Y. A. Bernard,  E. J. Berquist,  K. B. Bravaya,  H. Burton,  K. Carter-Fenk,  
 D. Casanova,  Chun-Min Chang,  Yunqing Chen,  A. Chien,  K. D. Closser,  
 M. P. Coons,  S. Coriani,  S. Dasgupta,  A. L. Dempwolff,  M. Diedenhofen,  
 Hainam Do,  R. G. Edgar,  Po-Tung Fang,  S. Faraji,  S. Fatehi,  
 Qingguo Feng,  J. Fosso-Tande,  J. Gayvert,  Qinghui Ge,  A. Ghysels,  
 G. Gidofalvi,  J. Gomes,  J. Gonthier,  S. Gulania,  A. Gunina,  D. Hait,  
 M. W. D. Hanson-Heine,  S. Hammes-Schiffer,  P. H. P. Harbach,  
 A. W. Hauser,  M. F. Herbst,  J. E. Herr,  E. G. Hohenstein,  Z. C. Holden,  
 S. Houck,  Kerwin Hui,  B. C. Huynh,  M. Ivanov,  T.-C. Jagau,  Hyunjun Ji,  
 B. Kaduk,  K. Khistyaev,  Jaehoon Kim,  P. Klunzinger,  K. Koh,  
 D. Kosenkov,  L. Koulias,  T. Kowalczyk,  C. M. Krauter,  A. Kunitsa,  
 Ka Un Lao,  A. Laurent,  K. V. Lawler,  Joonho Lee,  D. Lefrancois,  
 S. Lehtola,  D. S. Levine,  Yi-Pei Li,  You-Sheng Lin,  Fenglai Liu,  
 Kuan-Yu Liu,  E. Livshits,  M. Loipersberger,  A. Luenser,  A. Manjanath,  
 P. Manohar,  E. Mansoor,  S. F. Manzer,  Shan-Ping Mao,  Yuezhi Mao,  
 N. Mardirossian,  A. V. Marenich,  T. Markovich,  L. A. Martinez-Martinez,  
 S. A. Maurer,  N. J. Mayhall,  S. C. McKenzie,  J.-M. Mewes,  P. Morgante,  
 A. F. Morrison,  J. W. Mullinax,  K. Nanda,  T. S. Nguyen-Beck,  
 R. Olivares-Amaya,  K. J. Oosterbaan,  J. A. Parkhill,  S. K. Paul,  
 F. Pavosevic,  Zheng Pei,  T. M. Perrine,  F. Plasser,  P. Pokhilko,  
 S. Prager,  A. Prociuk,  E. Ramos,  B. Rana,  D. R. Rehn,  F. Rob,  
 E. Rossomme,  M. Scheurer,  M. Schneider,  N. Sergueev,  S. M. Sharada,  
 S. Sharma,  W. Skomorowski,  D. W. Small,  T. Stauch,  C. J. Stein,  
 T. Stein,  Yu-Chuan Su,  S. P. Veccham,  Zhen Tao,  A. J. W. Thom,  
 A. Tkatchenko,  T. Tsuchimochi,  N. M. Tubman,  L. Vogt,  M. L. Vidal,  
 O. Vydrov,  M. A. Watson,  J. Wenzel,  M. de Wergifosse,  T. A. Wesolowski,  
 A. White,  J. Witte,  A. Yamada,  Jun Yang,  K. Yao,  S. Yeganeh,  
 S. R. Yost,  Zhi-Qiang You,  A. Zech,  Igor Ying Zhang,  Xing Zhang,  
 Yan Zhao,  Ying Zhu,  B. R. Brooks,  G. K. L. Chan,  C. J. Cramer,  
 M. S. Gordon,  W. J. Hehre,  A. Klamt,  M. W. Schmidt,  C. D. Sherrill,  
 D. G. Truhlar,  A. Aspuru-Guzik,  R. Baer,  A. T. Bell,  N. A. Besley,  
 Jeng-Da Chai,  A. E. DePrince, III,  R. A. DiStasio Jr.,  A. Dreuw,  
 B. D. Dunietz,  T. R. Furlani,  Chao-Ping Hsu,  Yousung Jung,  Jing Kong,  
 D. S. Lambrecht,  WanZhen Liang,  C. Ochsenfeld,  V. A. Rassolov,  
 L. V. Slipchenko,  J. E. Subotnik,  T. Van Voorhis,  J. M. Herbert,  
 A. I. Krylov,  P. M. W. Gill,  M. Head-Gordon

 Contributors to earlier versions of Q-Chem not listed above: 
 R. D. Adamson,  B. Austin,  J. Baker,  G. J. O. Beran,  K. Brandhorst,  
 S. T. Brown,  E. F. C. Byrd,  A. K. Chakraborty,  C.-L. Cheng,  
 Siu Hung Chien,  D. M. Chipman,  D. L. Crittenden,  H. Dachsel,  
 R. J. Doerksen,  A. D. Dutoi,  L. Fusti-Molnar,  W. A. Goddard III,  
 A. Golubeva-Zadorozhnaya,  S. R. Gwaltney,  G. Hawkins,  A. Heyden,  
 S. Hirata,  G. Kedziora,  F. J. Keil,  C. Kelley,  Jihan Kim,  R. A. King,  
 R. Z. Khaliullin,  P. P. Korambath,  W. Kurlancheek,  A. M. Lee,  M. S. Lee,  
 S. V. Levchenko,  Ching Yeh Lin,  D. Liotard,  R. C. Lochan,  I. Lotan,  
 P. E. Maslen,  N. Nair,  D. P. O'Neill,  D. Neuhauser,  E. Neuscamman,  
 C. M. Oana,  R. Olson,  B. Peters,  R. Peverati,  P. A. Pieniazek,  
 Y. M. Rhee,  J. Ritchie,  M. A. Rohrdanz,  E. Rosta,  N. J. Russ,  
 H. F. Schaefer III,  N. E. Schultz,  N. Shenvi,  A. C. Simmonett,  A. Sodt,  
 D. Stuck,  K. S. Thanthiriwatte,  V. Vanovschi,  Tao Wang,  A. Warshel,  
 C. F. Williams,  Q. Wu,  X. Xu,  W. Zhang

 Please cite Q-Chem as follows:
 Y. Shao et al., Mol. Phys. 113, 184-215 (2015)
 DOI: 10.1080/00268976.2014.952696

 Q-Chem 5.3.2 for Intel X86 EM64T Linux

 Parts of Q-Chem use Armadillo 9.800.1 (Horizon Scraper).
 http://arma.sourceforge.net/

Compilation information
-----------------------

 SVN revision             | 35073
 SVN branch               | trunk
 Last SVN revision        | 35050
 Last SVN author          | cherri
 Hostname                 | osmium
 User                     | eric
 System                   | Linux-5.8.14-arch1-1
 Processor                | x86_64
 Compiler                 | GNU
 C compiler version       | 9.3.0
 CXX compiler version     | 9.3.0
 Fortran compiler version | 9.3.0
 Configuration time       | 2020-11-24 22:24:11


 Q-Chem begins on Fri Dec 18 22:03:36 2020  

Host: osmium
0

     Scratch files written to /tmp/qchem/qchem2733965//
Processing $rem in /home/eric/data/opt/apps/qchem/archive/r35050-g9.3.0-openblas/config/preferences:
Processing $rem in /home/eric/.qchemrc:
Symmetry turned off for PCM/SM12/SMD calculation

 Q-Chem warning in module libgen/rem_setup.C, line 2945:

 Neither GIA nor STOLL is specified by user. Use STOLL as the default


Checking the input file for inconsistencies... 	...done.

--------------------------------------------------------------
User input:
--------------------------------------------------------------
$molecule
-2 1
--
2 1
Mg       -0.0010725998    0.0036117038    0.0019360108
--
-4 1
O         0.0014285825   -0.0005903663    2.0538588676
C         1.1201868485   -0.0166946712    2.6515652756
O         1.2668333177   -0.1001347696    3.8825726792
C         2.3768596173    0.1337859131    1.8037657401
H         3.1659310810   -0.4909404137    2.2241393780
H         2.6837625676    1.1718052493    1.9355964185
N         2.1836280524   -0.1360651531    0.3791388286
C         2.7310094358    0.9256681544   -0.4546837760
H         2.8008426829    0.5772247392   -1.4839112878
H         3.7258674837    1.2413392844   -0.1391079143
C         2.5862565467   -1.4950227282    0.0007557082
H         2.6528622431   -1.5394193361   -1.0843772607
H         3.5700967033   -1.7460524479    0.4036237356
C         1.5558490536   -2.5007153188    0.4946694306
H         1.4692469299   -2.4385454674    1.5775466782
H         1.8813084901   -3.5134507687    0.2467671198
N         0.2437248500   -2.2028412932   -0.0900976100
C        -0.8976144317   -2.6954648109    0.6689240881
H        -0.6774941916   -2.6312617021    1.7331399299
H        -1.1424467578   -3.7324758065    0.4381864823
C         0.1608429632   -2.5733807877   -1.5027810575
H        -0.8416434590   -2.9441471227   -1.7195169557
H         0.8599818564   -3.3739454247   -1.7468942430
C         0.3742614323   -1.4178294822   -2.4718743787
O         0.6142405791   -1.7026452636   -3.6573257524
O         0.2493655015   -0.2393650023   -2.0195877895
C         1.8039735494    2.1422704462   -0.4826359722
O         2.2909996438    3.2312530551   -0.8230930302
O         0.5785618101    1.9563355732   -0.1891498466
C        -2.1339343886   -1.8248645846    0.4367123112
O        -3.2435069565   -2.3193633415    0.6884865088
O        -1.9471322947   -0.6317674829    0.0317853579
$end

$rem
 jobtype = eda
 method = m05-2x
 basis = def2-tzvp
 mem_static = 1000
 mem_total = 16000
 solvent_method = smd
$end
--------------------------------------------------------------
 ----------------------------------------------------------------
             Standard Nuclear Orientation (Angstroms)
    I     Atom           X                Y                Z
 ----------------------------------------------------------------
    1      Mg     -0.0010725998     0.0036117038     0.0019360108
    2      O       0.0014285825    -0.0005903663     2.0538588676
    3      C       1.1201868485    -0.0166946712     2.6515652756
    4      O       1.2668333177    -0.1001347696     3.8825726792
    5      C       2.3768596173     0.1337859131     1.8037657401
    6      H       3.1659310810    -0.4909404137     2.2241393780
    7      H       2.6837625676     1.1718052493     1.9355964185
    8      N       2.1836280524    -0.1360651531     0.3791388286
    9      C       2.7310094358     0.9256681544    -0.4546837760
   10      H       2.8008426829     0.5772247392    -1.4839112878
   11      H       3.7258674837     1.2413392844    -0.1391079143
   12      C       2.5862565467    -1.4950227282     0.0007557082
   13      H       2.6528622431    -1.5394193361    -1.0843772607
   14      H       3.5700967033    -1.7460524479     0.4036237356
   15      C       1.5558490536    -2.5007153188     0.4946694306
   16      H       1.4692469299    -2.4385454674     1.5775466782
   17      H       1.8813084901    -3.5134507687     0.2467671198
   18      N       0.2437248500    -2.2028412932    -0.0900976100
   19      C      -0.8976144317    -2.6954648109     0.6689240881
   20      H      -0.6774941916    -2.6312617021     1.7331399299
   21      H      -1.1424467578    -3.7324758065     0.4381864823
   22      C       0.1608429632    -2.5733807877    -1.5027810575
   23      H      -0.8416434590    -2.9441471227    -1.7195169557
   24      H       0.8599818564    -3.3739454247    -1.7468942430
   25      C       0.3742614323    -1.4178294822    -2.4718743787
   26      O       0.6142405791    -1.7026452636    -3.6573257524
   27      O       0.2493655015    -0.2393650023    -2.0195877895
   28      C       1.8039735494     2.1422704462    -0.4826359722
   29      O       2.2909996438     3.2312530551    -0.8230930302
   30      O       0.5785618101     1.9563355732    -0.1891498466
   31      C      -2.1339343886    -1.8248645846     0.4367123112
   32      O      -3.2435069565    -2.3193633415     0.6884865088
   33      O      -1.9471322947    -0.6317674829     0.0317853579
 ----------------------------------------------------------------
 Nuclear Repulsion Energy =        2060.95055876 hartrees
 There are       82 alpha and       82 beta electrons
 Requested basis set is def2-TZVP
 There are 280 shells and 724 basis functions

 Total QAlloc Memory Limit  16000 MB
 Mega-Array Size       978 MB
 MEM_STATIC part      1000 MB

 Citation of the SMD model:
 Marenich, A.V.; Cramer, C.J.; Truhlar, D.G.
 J. Phys. Chem. B 2009, 113, 6378-6396.
 iSolventCode=           1
 Solvent: water                                                           

 vradii
            1           2           3           4           5           6
    1   2.0414000   1.5200000   1.8500000   1.5200000   1.8500000   1.2000000
            7           8           9          10          11          12
    1   1.2000000   1.8900000   1.8500000   1.2000000   1.2000000   1.8500000
           13          14          15          16          17          18
    1   1.2000000   1.2000000   1.8500000   1.2000000   1.2000000   1.8900000
           19          20          21          22          23          24
    1   1.8500000   1.2000000   1.2000000   1.8500000   1.2000000   1.2000000
           25          26          27          28          29          30
    1   1.8500000   1.5200000   1.5200000   1.8500000   1.5200000   1.5200000
           31          32          33
    1   1.8500000   1.5200000   1.5200000
 Changing PCM_VDW_RADII to SMD_RADIUS
 Discretize the solute cavity surface with Lebedev spheres
	Using 110 Lebedev grid points for each H atom
	Using 194 Lebedev grid points for other atoms
	Atomic van der Waals radii will be scaled by 1.20
 Remove points where switching function is < 1.0e-08
 Keep 2368 surface tesserae and discard 3026 interior tesserae
 Molecular Surface Area = 259.749 Angst**2
 A cutoff of  1.0D-11 yielded  29441 shell pairs
 There are    191679 function pairs (    245558 Cartesian)
 Smallest overlap matrix eigenvalue = 7.29E-05

 Scale SEOQF with 1.000000e-01/1.000000e-01/1.000000e-01

 Standard Electronic Orientation quadrupole field applied
 Nucleus-field energy     =     0.0000000034 hartrees

 -----------------------------------------------------------------------
  General SCF calculation program by
  Eric Jon Sundstrom, Paul Horn, Yuezhi Mao, Dmitri Zuev, Alec White,
  David Stuck, Shaama M.S., Shane Yost, Joonho Lee, David Small,
  Daniel Levine, Susi Lehtola, Hugh Burton, Evgeny Epifanovsky,
  Bang C. Huynh
 -----------------------------------------------------------------------
================================================================
                 ALMO-EDA with the EDA2 driver                  
================================================================
 The second-generation ALMO-EDA (for DFT):                      
 P. R. Horn, Y. Mao and M. Head-Gordon, PCCP, 18, 23067 (2016)  
 Decomposition of the frozen energy:                            
 P. R. Horn, Y. Mao and M. Head-Gordon, JCP, 144, 114107 (2016) 
Using eda2 option set 2
Option set summary: Frozen orbital wavefunction, initial wavefunction decomposition, and traditional AO-based POL.
--------------------------------
Printing EDA Options
--------------------------------
eda_child_super_basis      0
fragmo_guess_mode          0
child_mp                   0
child_mp_orders            0
cls_elec                   1
cls_disp                   0
scfmi_mode                 1
scfmi_occs                 0
scfmi_virts                0
frz_relax                  0
frz_relax_method           0
dc_pen_start               0
dc_pen_conv                0
dc_pen_increment           0
dc_pen_steps               0
dc_pen_thresh_factor       0
dc_pen_pre_newton_thresh   0
frz_ortho_decomp           1
frz_ortho_decomp_conv      6
plot_mo_ortho_frz          0
frgm_method                2
scfmi_freeze_ss            0
separate_rehyb             0
plot_diff_den              0
eda_nocv                   0
eda_vct_relax              1
disp_free_x                0
disp_free_c                0
eda_bsse                   0
eda_pct_a                  1
eda_covp                   0
--------------------------------
Attempting to make child job directory: /tmp/qchem/qchem2733965//Frg1/
Attempting to make child job directory: /tmp/qchem/qchem2733965//Frg2/
Creating input file /tmp/qchem/qchem2733965/Frg1.input
using default PutDataFrgm: nothing
calling putenv with: QCSCRATCH=/tmp/qchem/qchem2733965/ 
Spawning Job For Fragment 0
Done Job For Fragment 0
calling putenv with: QCSCRATCH=/tmp/qchem 
calling putenv with: QCTHREADS=12 
Creating input file /tmp/qchem/qchem2733965/Frg2.input
using default PutDataFrgm: nothing
calling putenv with: QCSCRATCH=/tmp/qchem/qchem2733965/ 
Spawning Job For Fragment 1
Done Job For Fragment 1
calling putenv with: QCSCRATCH=/tmp/qchem 
calling putenv with: QCTHREADS=12 
Doing General SCFMI
 Exchange:     0.5600 Hartree-Fock + 1.0000 M05-2X
 Correlation:  1.0000 M05-2X
 Using SG-3 standard quadrature grid
performing fock build before subrot guess so that all methods have access
Printing subrot_rss_gen Method Specification:
Occupied Subspace Method is 0
Virtual Subspace Method is 0
Energy of the unrelaxed supersystem initial determinant -1300.175319164730
performing fock build before subrot guess so that all methods have access
Printing subrot_rss_gen Method Specification:
Occupied Subspace Method is 0
Virtual Subspace Method is 0
Energy of the unrelaxed supersystem initial determinant w/ solvent -1300.520752049200
write pseudocanon occs and virts to disk
write pseudocanon orbital energies to disk
Tolerance of ortho_decomp_scf: 1.00e-06
GDM subspace size: 20
Beginning the Orthogonal Decomposition of the Initial Supersystem Wavefunction
    1   -1298.3196739480      2.94e-01     ortho_decomp Preconditoned Steepest Descent
    2   -1298.3699458746      1.94e-03     ortho_decomp BFGS Step
    3   -1298.3699580472      5.52e-05     ortho_decomp BFGS Step
    4   -1298.3699580511      7.40e-07     ortho_decomp 00000 Convergence criterion met
 Hartree-Fock
 Hartree-Fock
 Hartree-Fock
Doing General SCFMI
 Exchange:     0.5600 Hartree-Fock + 1.0000 M05-2X
 Correlation:  1.0000 M05-2X
 Using SG-3 standard quadrature grid
performing fock build at end of subrot_r(subrot) constructor so that all methods have access
<S^2> of initial wavefunction before polarization iterations 0.0000000000
Beginning iterations for the determination of the polarized wavefunction
Energy prior to optimization (guess energy) = -1300.520752049199
Begin Timing: Total SCF Calculation
begin iterations for algorithm: DIIS         
the SCF tolerance is set to 1.00e-08
    1   -1300.5207520492      5.80e-04     00000 
    2   -1300.5841261723      4.40e-04     00000 
    3   -1300.6191472474      1.61e-04     00000 
    4   -1300.6230407389      4.19e-05     00000 
    5   -1300.6233058521      1.66e-05     00000 
    6   -1300.6233486228      8.94e-06     00000 
    7   -1300.6233621241      3.49e-06     00000 
    8   -1300.6233639629      1.76e-06     00000 
    9   -1300.6233644949      7.36e-07     00000 
   10   -1300.6233645913      4.18e-07     00000 
   11   -1300.6233646302      2.38e-07     00000 
   12   -1300.6233646459      1.47e-07     00000 
   13   -1300.6233646532      9.92e-08     00000 
   14   -1300.6233646580      4.85e-08     00000 
   15   -1300.6233646590      2.74e-08     00000 
   16   -1300.6233646591      1.61e-08     00000 
   17   -1300.6233646592      8.59e-09     00000 Convergence criterion met
write pseudocanon occs and virts to disk
write pseudocanon orbital energies to disk
Timing for Total SCF: 665.00s (wall), 7001.80s (cpu)
<S^2> of polarized wavefunction after polarization iterations 0.0000000000
relaxing scfmi constraint to allow all rotations in the entire AO span
Doing General SCFMI
 Exchange:     0.5600 Hartree-Fock + 1.0000 M05-2X
 Correlation:  1.0000 M05-2X
 Using SG-3 standard quadrature grid
performing fock build at end of subrot_r(subrot) constructor so that all methods have access
<S^2> of polarized wavefunction before ct-allowed iterations 0.0000000000
Beginning iterations for the determination of the CT-Allowed wavefunction
Energy prior to optimization (guess energy) = -1300.623364659153
Begin Timing: Total SCF Calculation
begin iterations for algorithm: DIIS         
the SCF tolerance is set to 1.00e-08
    1   -1300.6233646592      2.96e-04     00000 
    2   -1300.6409238063      3.16e-05     00000 
    3   -1300.6411414728      1.60e-05     00000 
    4   -1300.6411841640      4.87e-06     00000 
    5   -1300.6411877535      2.17e-06     00000 
    6   -1300.6411886212      2.42e-07     00000 
    7   -1300.6411886339      1.37e-07     00000 
    8   -1300.6411886376      4.46e-08     00000 
    9   -1300.6411886380      1.55e-08     00000 
   10   -1300.6411886381      2.77e-09     00000 Convergence criterion met
write pseudocanon occs and virts to disk
write pseudocanon orbital energies to disk
Timing for Total SCF: 376.00s (wall), 3953.74s (cpu)
<S^2> of ct_allowed wavefunction after ct-allowed iterations 0.0000000000
Perturbative CTA
Number of subspaces: 2
Appending the orthogonal complement of the current SCFMI subspace
Number of subspaces in CTA becomes 2
Doing General SCFMI
 Exchange:     0.5600 Hartree-Fock + 1.0000 M05-2X
 Correlation:  1.0000 M05-2X
 Using SG-3 standard quadrature grid
performing fock build at end of subrot_r(subrot) constructor so that all methods have access
PCT method is RS
Max deviation in Fvo + FvvXvo - XvoFoo - XvoFovXvo is 7.71e-11
X in RS PT satisfies the quadratic equation

================================
        Results of EDA2         
================================
Basic EDA Quantities
--------------------
Fragment Energies (Ha):
1 -199.7447193120
2-1100.5380291091
--------------------
  E_prp (kJ/mol) = 0.0000
  E_sol (kJ/mol) = 3681.8462
  E_frz (kJ/mol) = -4264.0620 (internal)
  E_pol (kJ/mol) = -269.4126
  E_vct (kJ/mol) = -46.7974
  E_int (kJ/mol) = -898.4259
--------------------


Decomposition of frozen interaction energy
--------------------
  --------------------
  Orthogonal Frozen Decomposition:
  --------------------
     E_elec   (ELEC)   (kJ/mol) = -4641.6750
     E_pauli  (PAULI)  (kJ/mol) = 409.9605
     E_disp   (DISP)   (kJ/mol) = -32.3475
  --------------------
  Classical Frozen Decomposition:
  --------------------
     E_cls_elec  (CLS ELEC)  (kJ/mol) = -4693.2719
     E_mod_pauli (MOD PAULI) (kJ/mol) = 461.5574 (FRZ - CLS ELEC - DISP)
     E_disp      (DISP)      (kJ/mol) = -32.3475
  --------------------
--------------------

--------------------
Perturbative CT Analysis:
--------------------
  E_pct (kJ/mol) = -43.5835
  E_HO  (kJ/mol) = -3.2139 (VCT - PCT) 
  ---------------  
  PCT Energy lowering  (row to column, kJ/mol)
            1           2    
    1   -0.000188   -0.864420
    2  -42.718964    0.000043
  PCT Charge displacement (row to column, me-)
            1           2    
    1   -0.049725    0.076655
    2   14.152767   -4.299161
--------------------

Simplified EDA Summary (kJ/mol)
--------------------
 PREPARATION      0.0000
 SOLVATION        3681.8462
 FROZEN(INTERNAL) -4264.0620 (ELEC + PAULI + DISP)
[ELEC + PAULI = -4231.7145, DISP = -32.3475]
 POLARIZATION    -269.4126
 CHARGE TRANSFER -46.7974
 TOTAL           -898.4259     (PRP + SOL + FRZ + POL + CT)
--------------------

 --------------------------------------------------------------

                    Orbital Energies (a.u.)
 --------------------------------------------------------------

 Alpha MOs
 -- Occupied --
-47.5682 -19.6388 -19.6388 -19.6374 -19.6373 -19.6286 -19.6286 -19.6272
-19.6272 -14.7960 -14.7960 -10.6778 -10.6777 -10.6760 -10.6759 -10.5881
-10.5880 -10.5877 -10.5875 -10.5870 -10.5865  -3.2396  -1.9444  -1.9434
 -1.9429  -1.1857  -1.1828  -1.1818  -1.1803  -1.0887  -1.0836  -1.0826
 -1.0804  -1.0631  -1.0428  -0.8738  -0.8417  -0.8396  -0.7923  -0.7349
 -0.6818  -0.6306  -0.6250  -0.6222  -0.6188  -0.6016  -0.5942  -0.5797
 -0.5650  -0.5642  -0.5578  -0.5388  -0.5363  -0.5328  -0.5320  -0.5217
 -0.5173  -0.5146  -0.5051  -0.4991  -0.4877  -0.4852  -0.4673  -0.4498
 -0.4440  -0.4333  -0.4325  -0.4128  -0.3802  -0.3714  -0.3690  -0.3660
 -0.3620  -0.3594  -0.3540  -0.3513  -0.3510  -0.3470  -0.3411  -0.3386
 -0.3178  -0.3058
 -- Virtual --
  0.0568   0.0696   0.0736   0.0769   0.0869   0.1012   0.1023   0.1063
  0.1293   0.1304   0.1362   0.1389   0.1437   0.1648   0.1670   0.1738
  0.1774   0.1789   0.1826   0.1835   0.1911   0.2087   0.2150   0.2212
  0.2249   0.2321   0.2339   0.2484   0.2505   0.2591   0.2661   0.2754
  0.2774   0.2842   0.2883   0.3047   0.3063   0.3136   0.3141   0.3239
  0.3257   0.3355   0.3421   0.3423   0.3521   0.3606   0.3622   0.3689
  0.3691   0.3837   0.3893   0.3909   0.3989   0.4060   0.4088   0.4110
  0.4184   0.4227   0.4276   0.4354   0.4381   0.4492   0.4585   0.4602
  0.4668   0.4729   0.4757   0.4833   0.4842   0.4882   0.4911   0.4933
  0.5005   0.5032   0.5046   0.5079   0.5193   0.5217   0.5279   0.5298
  0.5299   0.5389   0.5402   0.5546   0.5583   0.5670   0.5714   0.5729
  0.5748   0.5889   0.5924   0.5958   0.5998   0.6170   0.6184   0.6199
  0.6233   0.6269   0.6346   0.6404   0.6544   0.6548   0.6589   0.6605
  0.6689   0.6782   0.7014   0.7015   0.7167   0.7203   0.7264   0.7278
  0.7374   0.7422   0.7524   0.7548   0.7732   0.7766   0.7909   0.7918
  0.8085   0.8143   0.8193   0.8237   0.8400   0.8462   0.8538   0.8633
  0.8704   0.8765   0.8826   0.8988   0.9000   0.9085   0.9121   0.9229
  0.9417   0.9428   0.9490   0.9583   0.9595   0.9794   0.9828   0.9880
  0.9954   1.0074   1.0114   1.0147   1.0260   1.0358   1.0383   1.0524
  1.0617   1.0819   1.0839   1.0874   1.0940   1.1022   1.1036   1.1320
  1.1322   1.1379   1.1380   1.1494   1.1523   1.1721   1.1764   1.1857
  1.1984   1.2007   1.2130   1.2181   1.2257   1.2370   1.2574   1.2589
  1.2756   1.2811   1.3132   1.3275   1.3335   1.3380   1.3548   1.3613
  1.3639   1.4147   1.4242   1.4272   1.4358   1.4431   1.4449   1.4587
  1.4759   1.4833   1.4963   1.5295   1.5372   1.5489   1.5536   1.5569
  1.5581   1.5652   1.5843   1.5914   1.5934   1.6007   1.6031   1.6166
  1.6183   1.6217   1.6334   1.6450   1.6461   1.6503   1.6650   1.6808
  1.6810   1.6951   1.6961   1.7117   1.7177   1.7242   1.7348   1.7407
  1.7426   1.7564   1.7661   1.7783   1.7956   1.8053   1.8191   1.8340
  1.8363   1.8438   1.8533   1.8777   1.9052   1.9108   1.9278   1.9326
  1.9401   1.9498   1.9531   1.9637   1.9773   1.9827   1.9906   1.9946
  1.9983   2.0261   2.0268   2.0361   2.0566   2.0576   2.0669   2.0736
  2.0853   2.0955   2.1015   2.1202   2.1218   2.1381   2.1422   2.1432
  2.1482   2.1615   2.1669   2.1718   2.1747   2.1892   2.1944   2.2066
  2.2234   2.2251   2.2270   2.2339   2.2378   2.2738   2.2897   2.2950
  2.3013   2.3036   2.3126   2.3143   2.3391   2.3393   2.3453   2.3616
  2.3721   2.3751   2.3868   2.3966   2.4053   2.4206   2.4353   2.4498
  2.4523   2.4663   2.4787   2.4917   2.5037   2.5089   2.5090   2.5334
  2.5451   2.5457   2.5487   2.5756   2.5767   2.5953   2.6092   2.6124
  2.6146   2.6233   2.6593   2.6616   2.6654   2.6835   2.6965   2.6981
  2.7139   2.7194   2.7264   2.7397   2.7489   2.7509   2.7543   2.7714
  2.7903   2.7958   2.7980   2.8043   2.8132   2.8206   2.8231   2.8311
  2.8536   2.8547   2.8704   2.8861   2.8867   2.8965   2.9113   2.9165
  2.9177   2.9192   2.9668   2.9864   2.9881   3.0025   3.0044   3.0163
  3.0461   3.0464   3.0522   3.0632   3.0661   3.0701   3.0752   3.0872
  3.0884   3.0976   3.1000   3.1185   3.1232   3.1247   3.1337   3.1353
  3.1477   3.1583   3.1679   3.1700   3.1757   3.1894   3.1896   3.2036
  3.2042   3.2238   3.2260   3.2361   3.2380   3.2563   3.2648   3.2674
  3.2704   3.2951   3.2997   3.3110   3.3210   3.3315   3.3463   3.3608
  3.3623   3.3683   3.3700   3.3757   3.3801   3.3809   3.3909   3.3994
  3.4089   3.4145   3.4182   3.4257   3.4345   3.4452   3.4563   3.4614
  3.4637   3.4764   3.4843   3.4924   3.4976   3.5130   3.5265   3.5363
  3.5403   3.5553   3.5556   3.5707   3.5755   3.5781   3.5815   3.5931
  3.6018   3.6141   3.6220   3.6271   3.6329   3.6479   3.6484   3.6778
  3.6997   3.7096   3.7194   3.7267   3.7379   3.7684   3.7781   3.7824
  3.7954   3.8312   3.8438   3.8693   3.8766   3.8908   3.9183   3.9576
  3.9599   3.9665   3.9760   3.9779   3.9800   3.9995   4.0220   4.0284
  4.0372   4.0535   4.0603   4.0694   4.0945   4.1061   4.1215   4.1314
  4.1531   4.1635   4.2030   4.2296   4.2586   4.3697   4.3804   4.4031
  4.4061   4.4437   4.4460   4.4594   4.5030   4.5213   4.5526   4.5565
  4.5587   4.5926   4.5957   4.6166   4.6366   4.6438   4.6474   4.6614
  4.6717   4.7150   4.7213   4.7909   4.7915   4.8188   4.8240   4.8550
  4.9001   4.9478   5.0643   5.0980   5.1315   5.1423   5.1649   5.1674
  5.1856   5.1894   5.1901   5.1956   5.1963   5.2024   5.2077   5.2098
  5.2119   5.2188   5.2193   5.2299   5.2329   5.2488   5.2654   5.2696
  5.2810   5.3237   5.3327   5.3445   5.3613   5.3632   5.3784   5.3939
  5.4009   5.4147   5.4397   5.4585   5.4962   5.5295   5.5417   5.5532
  5.5548   5.5651   5.5681   5.5706   5.5797   5.5854   5.6464   5.6492
  5.6526   5.6552   5.6878   5.6943   5.7524   5.7656   5.8346   5.8352
  5.8509   5.8668   5.8955   5.9026   6.0413   6.0448   6.0562   6.0675
  6.0987   6.1003   6.1221   6.1238   6.1442   6.1484   6.1578   6.1717
  6.3252   6.3465   6.3559   6.3594   6.3674   6.3685   6.3739   6.3802
  6.3907   6.4476   6.4480   6.4548   6.4594   6.4705   6.4767   6.4931
  6.4960   6.5499   6.5719   6.6227   6.6924   6.7013   6.7240   6.7382
  6.7675   6.7771   6.7800   6.7860   6.8378   6.8388   6.8400   6.8487
  6.8661   6.8690   6.8918   6.9148   6.9398   6.9740   6.9769   6.9798
  7.0159   7.0360   7.1176   7.1219   7.1328   7.1414   7.1516   7.1570
  7.1738   7.1955   7.2028   7.2049   7.2643   7.3404  22.7535  22.7855
 22.8210  22.8233  22.8518  22.8810  23.6624  23.6876  23.6972  23.7185
 33.0822  33.1318  44.1413  44.1455  44.1509  44.1580  44.2023  44.2276
 44.2959  44.2973
 --------------------------------------------------------------

          Ground-State Mulliken Net Atomic Charges

     Atom                 Charge (a.u.)
  ----------------------------------------
      1 Mg                    2.000000
      2 O                    -0.778715
      3 C                     0.405838
      4 O                    -0.557175
      5 C                    -0.242280
      6 H                     0.185745
      7 H                     0.194270
      8 N                    -0.620046
      9 C                    -0.271668
     10 H                     0.189121
     11 H                     0.178110
     12 C                    -0.154361
     13 H                     0.201055
     14 H                     0.185742
     15 C                    -0.154432
     16 H                     0.200560
     17 H                     0.185749
     18 N                    -0.618943
     19 C                    -0.270202
     20 H                     0.188805
     21 H                     0.177676
     22 C                    -0.243124
     23 H                     0.194174
     24 H                     0.185790
     25 C                     0.406459
     26 O                    -0.557839
     27 O                    -0.778485
     28 C                     0.421600
     29 O                    -0.546922
     30 O                    -0.790543
     31 C                     0.421682
     32 O                    -0.547127
     33 O                    -0.790514
  ----------------------------------------
  Sum of atomic charges =    -2.000000

 -----------------------------------------------------------------
                    Cartesian Multipole Moments
 -----------------------------------------------------------------
    Charge (ESU x 10^10)
                -9.6064
    Dipole Moment (Debye)
         X       8.0902      Y      -7.8024      Z       0.9887
       Tot      11.2830
    Quadrupole Moments (Debye-Ang)
        XX    -160.6740     XY     -38.1694     YY    -162.1236
        XZ      10.5355     YZ      -0.3755     ZZ    -215.3219
    Octopole Moments (Debye-Ang^2)
       XXX     -82.2936    XXY      92.3309    XYY     -91.7899
       YYY      82.8681    XXZ     -22.5513    XYZ      -5.6238
       YYZ      34.6185    XZZ    -138.3284    YZZ     125.2625
       ZZZ     -48.3260
    Hexadecapole Moments (Debye-Ang^3)
      XXXX   -2697.2786   XXXY    -711.1438   XXYY   -1082.5347
      XYYY    -701.6228   YYYY   -2771.3168   XXXZ      76.9234
      XXYZ      70.3602   XYYZ     113.9604   YYYZ      19.4040
      XXZZ    -847.0294   XYZZ     -86.6681   YYZZ    -892.8007
      XZZZ    -128.5787   YZZZ    -291.3013   ZZZZ   -3630.5888
 -----------------------------------------------------------------
Archival summary:
1\1\osmium\SP\ProcedureUnspecified\BasisUnspecified\g1821012(2-,1)\eric\FriDec1822:33:232020FriDec1822:33:232020\0\\#,ProcedureUnspecified,BasisUnspecified,\\-2,1\Mg\O,1,2.04588\C,2,1.27371,1,115.685\O,3,1.24056,2,124.686,1,169.26,0\C,3,1.5298,2,117.562,1,-8.74661,0\H,5,1.08885,3,106.027,2,97.0815,0\H,5,1.0904,3,109.144,2,-146.904,0\N,5,1.45676,3,111.246,2,-21.747,0\C,8,1.46278,5,111.923,3,-77.7022,0\H,9,1.09044,8,109.301,5,12.8082,0\H,9,1.0907,8,111.424,5,-105.435,0\C,8,1.46699,5,115.112,3,151.909,0\H,12,1.08808,8,108.17,5,-35.9533,0\H,12,1.09236,8,111.404,5,82.1789,0\C,12,1.5222,8,110.032,5,-155.847,0\H,15,1.08811,12,109.818,8,-59.5744,0\H,15,1.09225,12,109.709,8,-177.656,0\N,15,1.46709,12,109.995,8,59.5159,0\C,18,1.45652,15,115.116,12,-156.089,0\H,19,1.08864,18,109.332,15,35.1001,0\H,19,1.09022,18,112.793,15,-85.0277,0\C,18,1.46282,15,112.592,12,74.0094,0\H,22,1.09055,18,111.457,15,25.7831,0\H,22,1.09061,18,109.276,15,144.046,0\C,22,1.52315,18,114.477,15,-98.4273,0\O,25,1.24258,22,117.397,18,164.271,0\O,25,1.26844,22,117.657,18,-18.0582,0\C,9,1.52336,8,114.508,5,130.271,0\O,28,1.24252,9,117.429,8,164.177,0\O,28,1.26852,9,117.649,8,-18.2258,0\C,19,1.52982,18,111.204,15,151.996,0\O,31,1.24059,19,117.72,18,159.529,0\O,31,1.27371,19,117.568,18,-22.2703,0\\\@

 Total job time:  1786.40s(wall), 16967.93s(cpu) 
 Fri Dec 18 22:33:23 2020

        *************************************************************
        *                                                           *
        *  Thank you very much for using Q-Chem.  Have a nice day.  *
        *                                                           *
        *************************************************************


