                  Welcome to Q-Chem
     A Quantum Leap Into The Future Of Chemistry


 Q-Chem 5.2 (devel), Q-Chem, Inc., Pleasanton, CA (2019)

 Yihan Shao,  Zhengting Gan,  E. Epifanovsky,  A. T. B. Gilbert,  M. Wormit,  
 J. Kussmann,  A. W. Lange,  A. Behn,  Jia Deng,  Xintian Feng,  D. Ghosh,  
 M. Goldey,  P. R. Horn,  L. D. Jacobson,  I. Kaliman,  T. Kus,  A. Landau,  
 Jie Liu,  E. I. Proynov,  R. M. Richard,  R. P. Steele,  E. J. Sundstrom,  
 H. L. Woodcock III,  P. M. Zimmerman,  D. Zuev,  B. Albrecht,  E. Alguire,  
 S. A. Baeppler,  D. Barton,  Z. Benda,  Y. A. Bernard,  E. J. Berquist,  
 K. B. Bravaya,  H. Burton,  D. Casanova,  Chun-Min Chang,  Yunqing Chen,  
 A. Chien,  K. D. Closser,  M. P. Coons,  S. Coriani,  S. Dasgupta,  
 A. L. Dempwolff,  M. Diedenhofen,  Hainam Do,  R. G. Edgar,  Po-Tung Fang,  
 S. Faraji,  S. Fatehi,  Qingguo Feng,  K. D. Fenk,  J. Fosso-Tande,  
 J. Gayvert,  Qinghui Ge,  A. Ghysels,  G. Gidofalvi,  J. Gomes,  
 J. Gonthier,  A. Gunina,  D. Hait,  M. W. D. Hanson-Heine,  
 P. H. P. Harbach,  A. W. Hauser,  M. F. Herbst,  J. E. Herr,  
 E. G. Hohenstein,  Z. C. Holden,  Kerwin Hui,  B. C. Huynh,  T.-C. Jagau,  
 Hyunjun Ji,  B. Kaduk,  K. Khistyaev,  Jaehoon Kim,  P. Klunzinger,  K. Koh,  
 D. Kosenkov,  L. Koulias,  T. Kowalczyk,  C. M. Krauter,  A. Kunitsa,  
 Ka Un Lao,  A. Laurent,  K. V. Lawler,  Joonho Lee,  D. Lefrancois,  
 S. Lehtola,  D. S. Levine,  Yi-Pei Li,  You-Sheng Lin,  Fenglai Liu,  
 E. Livshits,  A. Luenser,  P. Manohar,  E. Mansoor,  S. F. Manzer,  
 Shan-Ping Mao,  Yuezhi Mao,  N. Mardirossian,  A. V. Marenich,  
 T. Markovich,  L. A. Martinez-Martinez,  S. A. Maurer,  N. J. Mayhall,  
 S. C. McKenzie,  J.-M. Mewes,  A. F. Morrison,  J. W. Mullinax,  K. Nanda,  
 T. S. Nguyen-Beck,  R. Olivares-Amaya,  J. A. Parkhill,  T. M. Perrine,  
 F. Plasser,  P. Pokhilko,  S. Prager,  A. Prociuk,  E. Ramos,  D. R. Rehn,  
 F. Rob,  M. Scheurer,  M. Schneider,  N. Sergueev,  S. M. Sharada,  
 S. Sharma,  D. W. Small,  T. Stauch,  T. Stein,  Yu-Chuan Su,  
 A. J. W. Thom,  A. Tkatchenko,  T. Tsuchimochi,  N. M. Tubman,  L. Vogt,  
 M. L. Vidal,  O. Vydrov,  M. A. Watson,  J. Wenzel,  M. de Wergifosse,  
 T. A. Wesolowski,  A. White,  J. Witte,  A. Yamada,  Jun Yang,  K. Yao,  
 S. Yeganeh,  S. R. Yost,  Zhi-Qiang You,  A. Zech,  Igor Ying Zhang,  
 Xing Zhang,  Yan Zhao,  Ying Zhu,  B. R. Brooks,  G. K. L. Chan,  
 C. J. Cramer,  M. S. Gordon,  W. J. Hehre,  A. Klamt,  M. W. Schmidt,  
 C. D. Sherrill,  D. G. Truhlar,  A. Aspuru-Guzik,  R. Baer,  A. T. Bell,  
 N. A. Besley,  Jeng-Da Chai,  A. E. DePrince, III,  R. A. DiStasio Jr.,  
 A. Dreuw,  B. D. Dunietz,  T. R. Furlani,  Chao-Ping Hsu,  Yousung Jung,  
 Jing Kong,  D. S. Lambrecht,  WanZhen Liang,  C. Ochsenfeld,  
 V. A. Rassolov,  L. V. Slipchenko,  J. E. Subotnik,  T. Van Voorhis,  
 J. M. Herbert,  A. I. Krylov,  P. M. W. Gill,  M. Head-Gordon

 Contributors to earlier versions of Q-Chem not listed above: 
 R. D. Adamson,  B. Austin,  J. Baker,  G. J. O. Beran,  K. Brandhorst,  
 S. T. Brown,  E. F. C. Byrd,  A. K. Chakraborty,  C.-L. Cheng,  
 Siu Hung Chien,  D. M. Chipman,  D. L. Crittenden,  H. Dachsel,  
 R. J. Doerksen,  A. D. Dutoi,  L. Fusti-Molnar,  W. A. Goddard III,  
 A. Golubeva-Zadorozhnaya,  S. R. Gwaltney,  G. Hawkins,  A. Heyden,  
 S. Hirata,  G. Kedziora,  F. J. Keil,  C. Kelley,  Jihan Kim,  R. A. King,  
 R. Z. Khaliullin,  P. P. Korambath,  W. Kurlancheek,  A. M. Lee,  M. S. Lee,  
 S. V. Levchenko,  Ching Yeh Lin,  D. Liotard,  R. C. Lochan,  I. Lotan,  
 P. E. Maslen,  N. Nair,  D. P. O'Neill,  D. Neuhauser,  E. Neuscamman,  
 C. M. Oana,  R. Olson,  B. Peters,  R. Peverati,  P. A. Pieniazek,  
 Y. M. Rhee,  J. Ritchie,  M. A. Rohrdanz,  E. Rosta,  N. J. Russ,  
 H. F. Schaefer III,  N. E. Schultz,  N. Shenvi,  A. C. Simmonett,  A. Sodt,  
 D. Stuck,  K. S. Thanthiriwatte,  V. Vanovschi,  Tao Wang,  A. Warshel,  
 C. F. Williams,  Q. Wu,  X. Xu,  W. Zhang

 Please cite Q-Chem as follows:
 Y. Shao et al., Mol. Phys. 113, 184-215 (2015)
 DOI: 10.1080/00268976.2014.952696

 Q-Chem 5.2.0 for Intel X86 EM64T Linux

 Parts of Q-Chem use Armadillo 8.300.2 (Tropical Shenanigans).
 http://arma.sourceforge.net/

Compilation information
-----------------------

 SVN revision             | 31250
 SVN branch               | trunk
 Last SVN revision        | 31248
 Last SVN author          | afmorrison
 Hostname                 | login1.crc.pitt.edu
 User                     | erb74
 System                   | Linux-3.10.0-957.1.3.el7.x86_64
 Processor                | x86_64
 Compiler                 | Intel
 C compiler version       | 18.0.2.20180210
 CXX compiler version     | 18.0.2.20180210
 Fortran compiler version | 18.0.2.20180210
 Configuration time       | 2019-03-30 21:16:52


 Q-Chem begins on Sat Nov 28 10:57:22 2020  

Host: smp-n87.crc.pitt.edu
0

     Scratch files written to /scratch/slurm-2001485/mgEdta6//
Symmetry turned off for PCM/SM12/SMD calculation

Checking the input file for inconsistencies... 	...done.

--------------------------------------------------------------
User input:
--------------------------------------------------------------
$molecule
-2 1
Mg       -0.0124507249    0.0075219432    0.0175835464
O         0.0139254005   -0.0627736841    2.0752511483
C         1.1456925045   -0.0885209254    2.6481248430
O         1.3232549621   -0.2389480008    3.8669426661
C         2.3710360196    0.1409716142    1.7760246012
H         3.2087769549   -0.4323017498    2.1704889313
H         2.6070302463    1.1977272175    1.8937756706
N         2.1599331614   -0.1387509331    0.3606179717
C         2.7062738950    0.9089299218   -0.4829352789
H         2.7451992808    0.5542249731   -1.5101026923
H         3.7099480972    1.2080532360   -0.1839543942
C         2.5651085244   -1.4939057112   -0.0069445450
H         2.6136031816   -1.5505066844   -1.0910673763
H         3.5532136168   -1.7325356308    0.3877971091
C         1.5412251046   -2.4838715799    0.5129921882
H         1.4596688408   -2.3972576996    1.5930627428
H         1.8507840353   -3.5024900426    0.2773993639
N         0.2364251048   -2.1792720031   -0.0696977603
C        -0.8992725820   -2.6806594357    0.6813613873
H        -0.6872092899   -2.5957451341    1.7444221873
H        -1.1245854830   -3.7217366792    0.4558335727
C         0.1612984420   -2.5478786201   -1.4777860854
H        -0.8581848628   -2.8543061637   -1.7094200962
H         0.8190409978   -3.3859171336   -1.7040159864
C         0.4558440474   -1.4028773583   -2.4324257605
O         0.7884641289   -1.6939692022   -3.5933739564
O         0.2934481977   -0.2234256729   -1.9989232734
C         1.7954279723    2.1333757498   -0.4881091324
O         2.2829479984    3.2138171389   -0.8504413882
O         0.5792725210    1.9631653982   -0.1511059847
C        -2.1378833719   -1.8293766691    0.4192357106
O        -3.2463681463   -2.3386402709    0.6423403495
O        -1.9578120331   -0.6358096355    0.0151833948
$end

$rem
 jobtype = opt
 method =  m05-2x
 basis = def2-tzvp
 solvent_method = smd
 !purecart = 2111
 mem_static = 1000
 mem_total = 16000
 geom_opt_max_cycles = 600
 geom_opt_tol_gradient = 40
 geom_opt_tol_energy = 20
 geom_opt_tol_displacement = 100
 geom_opt_dmax = 10
 scf_convergence = 8
 max_scf_cycles = 5000
 xc_grid = 3
 chelpg true
$end


--------------------------------------------------------------
 ----------------------------------------------------------------
             Standard Nuclear Orientation (Angstroms)
    I     Atom           X                Y                Z
 ----------------------------------------------------------------
    1      Mg     -0.0124507249     0.0075219432     0.0175835464
    2      O       0.0139254005    -0.0627736841     2.0752511483
    3      C       1.1456925045    -0.0885209254     2.6481248430
    4      O       1.3232549621    -0.2389480008     3.8669426661
    5      C       2.3710360196     0.1409716142     1.7760246012
    6      H       3.2087769549    -0.4323017498     2.1704889313
    7      H       2.6070302463     1.1977272175     1.8937756706
    8      N       2.1599331614    -0.1387509331     0.3606179717
    9      C       2.7062738950     0.9089299218    -0.4829352789
   10      H       2.7451992808     0.5542249731    -1.5101026923
   11      H       3.7099480972     1.2080532360    -0.1839543942
   12      C       2.5651085244    -1.4939057112    -0.0069445450
   13      H       2.6136031816    -1.5505066844    -1.0910673763
   14      H       3.5532136168    -1.7325356308     0.3877971091
   15      C       1.5412251046    -2.4838715799     0.5129921882
   16      H       1.4596688408    -2.3972576996     1.5930627428
   17      H       1.8507840353    -3.5024900426     0.2773993639
   18      N       0.2364251048    -2.1792720031    -0.0696977603
   19      C      -0.8992725820    -2.6806594357     0.6813613873
   20      H      -0.6872092899    -2.5957451341     1.7444221873
   21      H      -1.1245854830    -3.7217366792     0.4558335727
   22      C       0.1612984420    -2.5478786201    -1.4777860854
   23      H      -0.8581848628    -2.8543061637    -1.7094200962
   24      H       0.8190409978    -3.3859171336    -1.7040159864
   25      C       0.4558440474    -1.4028773583    -2.4324257605
   26      O       0.7884641289    -1.6939692022    -3.5933739564
   27      O       0.2934481977    -0.2234256729    -1.9989232734
   28      C       1.7954279723     2.1333757498    -0.4881091324
   29      O       2.2829479984     3.2138171389    -0.8504413882
   30      O       0.5792725210     1.9631653982    -0.1511059847
   31      C      -2.1378833719    -1.8293766691     0.4192357106
   32      O      -3.2463681463    -2.3386402709     0.6423403495
   33      O      -1.9578120331    -0.6358096355     0.0151833948
 ----------------------------------------------------------------
 Nuclear Repulsion Energy =        2070.81577220 hartrees
 There are       82 alpha and       82 beta electrons
 Requested basis set is def2-TZVP
 There are 280 shells and 724 basis functions

 Total QAlloc Memory Limit  16000 MB
 Mega-Array Size       978 MB
 MEM_STATIC part      1000 MB
 
 Citation of the SMD model:
 Marenich, A.V.; Cramer, C.J.; Truhlar, D.G.
 J. Phys. Chem. B 2009, 113, 6378-6396.
 iSolventCode=           1
 Solvent: water                                                           
 
 vradii
            1           2           3           4           5           6
    1   2.0414000   1.5200000   1.8500000   1.5200000   1.8500000   1.2000000
            7           8           9          10          11          12
    1   1.2000000   1.8900000   1.8500000   1.2000000   1.2000000   1.8500000
           13          14          15          16          17          18
    1   1.2000000   1.2000000   1.8500000   1.2000000   1.2000000   1.8900000
           19          20          21          22          23          24
    1   1.8500000   1.2000000   1.2000000   1.8500000   1.2000000   1.2000000
           25          26          27          28          29          30
    1   1.8500000   1.5200000   1.5200000   1.8500000   1.5200000   1.5200000
           31          32          33
    1   1.8500000   1.5200000   1.5200000
 Changing PCM_VDW_RADII to SMD_RADIUS
 Discretize the solute cavity surface with Lebedev spheres
	Using 110 Lebedev grid points for each H atom
	Using 194 Lebedev grid points for other atoms
	Atomic van der Waals radii will be scaled by 1.20
 Remove points where switching function is < 1.0e-08
 Keep 2329 surface tesserae and discard 3065 interior tesserae
 Molecular Surface Area = 256.234 Angst**2
 A cutoff of  1.0D-11 yielded  29578 shell pairs
 There are    192678 function pairs (    246924 Cartesian)
 Smallest overlap matrix eigenvalue = 6.62E-05

 Scale SEOQF with 1.000000e-01/1.000000e-01/1.000000e-01

 Standard Electronic Orientation quadrupole field applied
 Nucleus-field energy     =     0.0000000040 hartrees
 Guess from superposition of atomic densities
 Warning:  Energy on first SCF cycle will be non-variational
 SAD guess density has 162.000000 electrons

 -----------------------------------------------------------------------
  General SCF calculation program by
  Eric Jon Sundstrom, Paul Horn, Yuezhi Mao, Dmitri Zuev, Alec White,
  David Stuck, Shaama M.S., Shane Yost, Joonho Lee, David Small,
  Daniel Levine, Susi Lehtola, Hugh Burton, Evgeny Epifanovsky
 -----------------------------------------------------------------------
 Exchange:     0.5600 Hartree-Fock + 1.0000 M05-2X
 Correlation:  1.0000 M05-2X
 Using SG-3 standard quadrature grid
 
 Citation of the SMD model:
 Marenich, A.V.; Cramer, C.J.; Truhlar, D.G.
 J. Phys. Chem. B 2009, 113, 6378-6396.
 iSolventCode=           1
 Solvent: water                                                           
 
 vradii
            1           2           3           4           5           6
    1   2.0414000   1.5200000   1.8500000   1.5200000   1.8500000   1.2000000
            7           8           9          10          11          12
    1   1.2000000   1.8900000   1.8500000   1.2000000   1.2000000   1.8500000
           13          14          15          16          17          18
    1   1.2000000   1.2000000   1.8500000   1.2000000   1.2000000   1.8900000
           19          20          21          22          23          24
    1   1.8500000   1.2000000   1.2000000   1.8500000   1.2000000   1.2000000
           25          26          27          28          29          30
    1   1.8500000   1.5200000   1.5200000   1.8500000   1.5200000   1.5200000
           31          32          33
    1   1.8500000   1.5200000   1.5200000
 using 16 threads for integral computing
 -------------------------------------------------------
 OpenMP Integral computing Module                
 Release: version 2.0, May 2017, Q-Chem Inc. Pleasanton 
 -------------------------------------------------------
 Required memory 38181 MB for running faster algorithm of ks_driver_exc_fxc::perform()
 A restricted SCF calculation will be
 performed using DIIS
 SCF converges when DIIS error is below 1.0e-08
 ---------------------------------------
  Cycle       Energy         DIIS error
 ---------------------------------------
    1   -1305.9182624330      2.23e-02  
    2   -1300.1532869742      3.15e-03  
    3   -1300.0732676570      3.70e-03  
    4   -1300.6365783345      2.31e-04  
    5   -1300.6391044869      1.35e-04  
    6   -1300.6400991300      4.21e-05  
    7   -1300.6401772855      1.38e-05  
    8   -1300.6401869018      3.39e-06  
    9   -1300.6401875044      1.47e-06  
   10   -1300.6401876186      3.31e-07  
   11   -1300.6401876249      9.10e-08  
   12   -1300.6401876254      2.09e-08  
   13   -1300.6401876255      1.20e-08  
   14   -1300.6401876255      3.71e-09  Convergence criterion met
 ---------------------------------------
 SCF time:   CPU 8036.23s  wall 572.00s 
(3)  G-ENP(liq) elect-nuc-pol free energy of system    -1300.640187625 a.u.
(4)  G-CDS(liq) cavity-dispersion-solvent structure 
     free energy                                               10.0938 kcal/mol
(6)  G-S(liq) free energy of system                    -1300.624102195 a.u.
 SCF   energy in the final basis set =    -1300.6401876255
 Total energy in the final basis set =    -1300.6241021945
 
 --------------------------------------------------------------
 
                    Orbital Energies (a.u.)
 --------------------------------------------------------------
 
 Alpha MOs
 -- Occupied --
-47.5682 -19.6392 -19.6386 -19.6370 -19.6369 -19.6285 -19.6285 -19.6278
-19.6271 -14.7945 -14.7944 -10.6773 -10.6772 -10.6758 -10.6754 -10.5871
-10.5870 -10.5861 -10.5860 -10.5856 -10.5851  -3.2397  -1.9444  -1.9434
 -1.9430  -1.1865  -1.1835  -1.1825  -1.1809  -1.0899  -1.0841  -1.0831
 -1.0809  -1.0666  -1.0461  -0.8760  -0.8432  -0.8411  -0.7934  -0.7350
 -0.6824  -0.6319  -0.6256  -0.6232  -0.6196  -0.6024  -0.5972  -0.5808
 -0.5654  -0.5652  -0.5585  -0.5396  -0.5364  -0.5335  -0.5320  -0.5221
 -0.5180  -0.5149  -0.5037  -0.4998  -0.4879  -0.4871  -0.4678  -0.4500
 -0.4446  -0.4347  -0.4346  -0.4120  -0.3804  -0.3713  -0.3689  -0.3665
 -0.3619  -0.3599  -0.3543  -0.3516  -0.3502  -0.3463  -0.3411  -0.3384
 -0.3192  -0.3062
 -- Virtual --
  0.0563   0.0696   0.0730   0.0764   0.0889   0.1027   0.1027   0.1076
  0.1288   0.1312   0.1367   0.1392   0.1443   0.1653   0.1679   0.1767
  0.1797   0.1805   0.1822   0.1830   0.1926   0.2104   0.2147   0.2214
  0.2255   0.2311   0.2371   0.2463   0.2523   0.2590   0.2654   0.2762
  0.2771   0.2862   0.2892   0.3049   0.3127   0.3137   0.3152   0.3233
  0.3270   0.3389   0.3420   0.3435   0.3540   0.3637   0.3657   0.3730
  0.3743   0.3839   0.3906   0.3933   0.3990   0.4077   0.4113   0.4135
  0.4188   0.4249   0.4295   0.4381   0.4416   0.4506   0.4609   0.4650
  0.4678   0.4739   0.4789   0.4855   0.4869   0.4877   0.4927   0.4960
  0.5010   0.5055   0.5065   0.5093   0.5203   0.5250   0.5280   0.5303
  0.5313   0.5400   0.5411   0.5552   0.5600   0.5657   0.5695   0.5736
  0.5773   0.5906   0.5947   0.5979   0.6004   0.6189   0.6215   0.6225
  0.6274   0.6300   0.6328   0.6396   0.6549   0.6565   0.6576   0.6614
  0.6689   0.6823   0.7021   0.7095   0.7178   0.7258   0.7309   0.7364
  0.7408   0.7426   0.7547   0.7567   0.7725   0.7818   0.7913   0.7969
  0.8080   0.8160   0.8225   0.8241   0.8382   0.8453   0.8558   0.8602
  0.8755   0.8779   0.8836   0.8927   0.9020   0.9119   0.9126   0.9231
  0.9367   0.9427   0.9493   0.9632   0.9662   0.9805   0.9819   0.9890
  1.0014   1.0078   1.0092   1.0251   1.0299   1.0390   1.0456   1.0573
  1.0736   1.0841   1.0886   1.0960   1.1000   1.1051   1.1113   1.1290
  1.1301   1.1423   1.1489   1.1533   1.1618   1.1748   1.1813   1.1872
  1.1953   1.1997   1.2114   1.2233   1.2315   1.2378   1.2625   1.2651
  1.2707   1.2889   1.3129   1.3296   1.3325   1.3421   1.3533   1.3647
  1.3686   1.4127   1.4241   1.4251   1.4336   1.4437   1.4535   1.4654
  1.4751   1.4868   1.5001   1.5269   1.5419   1.5438   1.5505   1.5576
  1.5593   1.5698   1.5812   1.5917   1.5966   1.6030   1.6068   1.6146
  1.6225   1.6309   1.6334   1.6470   1.6483   1.6606   1.6671   1.6705
  1.6720   1.6987   1.7041   1.7128   1.7189   1.7250   1.7400   1.7414
  1.7449   1.7645   1.7696   1.7880   1.8001   1.8130   1.8255   1.8387
  1.8405   1.8574   1.8638   1.8762   1.9085   1.9212   1.9330   1.9434
  1.9463   1.9492   1.9594   1.9644   1.9821   1.9870   1.9953   2.0039
  2.0071   2.0221   2.0294   2.0436   2.0606   2.0658   2.0714   2.0766
  2.0890   2.0962   2.0993   2.1143   2.1290   2.1367   2.1429   2.1504
  2.1560   2.1679   2.1708   2.1787   2.1869   2.1924   2.2025   2.2138
  2.2253   2.2279   2.2364   2.2421   2.2498   2.2818   2.2904   2.2991
  2.3051   2.3104   2.3177   2.3185   2.3400   2.3476   2.3494   2.3669
  2.3797   2.3833   2.3942   2.3963   2.4159   2.4286   2.4378   2.4509
  2.4561   2.4750   2.4933   2.5022   2.5100   2.5196   2.5202   2.5396
  2.5494   2.5524   2.5539   2.5792   2.5819   2.5941   2.6160   2.6179
  2.6243   2.6295   2.6601   2.6651   2.6670   2.6764   2.6978   2.7025
  2.7187   2.7225   2.7307   2.7477   2.7519   2.7527   2.7535   2.7744
  2.7952   2.7964   2.8031   2.8071   2.8151   2.8247   2.8299   2.8428
  2.8606   2.8642   2.8818   2.8945   2.8965   2.9062   2.9187   2.9233
  2.9244   2.9317   2.9614   2.9913   2.9958   3.0089   3.0169   3.0232
  3.0473   3.0495   3.0607   3.0706   3.0708   3.0764   3.0862   3.0927
  3.0945   3.0964   3.1090   3.1199   3.1254   3.1291   3.1398   3.1427
  3.1466   3.1655   3.1675   3.1790   3.1801   3.1916   3.1946   3.2071
  3.2090   3.2226   3.2277   3.2441   3.2475   3.2623   3.2669   3.2734
  3.2810   3.3034   3.3073   3.3267   3.3351   3.3404   3.3475   3.3644
  3.3711   3.3728   3.3770   3.3821   3.3894   3.3928   3.3941   3.4059
  3.4183   3.4221   3.4235   3.4308   3.4375   3.4454   3.4533   3.4654
  3.4693   3.4796   3.4900   3.4917   3.5037   3.5161   3.5261   3.5434
  3.5508   3.5567   3.5617   3.5754   3.5762   3.5844   3.5868   3.6068
  3.6114   3.6214   3.6231   3.6385   3.6402   3.6529   3.6543   3.6877
  3.7046   3.7137   3.7237   3.7322   3.7383   3.7761   3.7871   3.7923
  3.7990   3.8345   3.8615   3.8678   3.8876   3.8971   3.9236   3.9643
  3.9735   3.9784   3.9819   3.9843   3.9919   4.0143   4.0287   4.0328
  4.0437   4.0633   4.0650   4.0774   4.1065   4.1092   4.1281   4.1371
  4.1717   4.1809   4.2131   4.2477   4.2794   4.3793   4.3942   4.4052
  4.4237   4.4485   4.4555   4.4614   4.5090   4.5228   4.5629   4.5658
  4.5699   4.6010   4.6042   4.6225   4.6414   4.6492   4.6611   4.6647
  4.6858   4.7174   4.7327   4.8008   4.8104   4.8143   4.8231   4.8716
  4.9054   4.9566   5.0727   5.1060   5.1423   5.1527   5.1675   5.1731
  5.1877   5.1901   5.1915   5.1966   5.1994   5.2053   5.2102   5.2114
  5.2130   5.2199   5.2234   5.2338   5.2363   5.2530   5.2743   5.2770
  5.2918   5.3292   5.3353   5.3497   5.3653   5.3701   5.3860   5.4039
  5.4129   5.4261   5.4517   5.4699   5.5127   5.5351   5.5499   5.5555
  5.5571   5.5673   5.5707   5.5744   5.5877   5.5882   5.6501   5.6509
  5.6578   5.6596   5.7020   5.7114   5.7576   5.7703   5.8372   5.8407
  5.8535   5.8690   5.8981   5.9064   6.0440   6.0486   6.0635   6.0743
  6.1004   6.1025   6.1231   6.1254   6.1491   6.1534   6.1633   6.1784
  6.3273   6.3491   6.3599   6.3632   6.3703   6.3737   6.3773   6.3835
  6.3942   6.4492   6.4493   6.4564   6.4621   6.4717   6.4805   6.5031
  6.5096   6.5506   6.5766   6.6253   6.6969   6.7063   6.7295   6.7440
  6.7686   6.7774   6.7856   6.7928   6.8397   6.8425   6.8441   6.8567
  6.8705   6.8793   6.8949   6.9153   6.9445   6.9743   6.9770   6.9816
  7.0212   7.0410   7.1201   7.1238   7.1368   7.1442   7.1541   7.1592
  7.1792   7.2019   7.2056   7.2085   7.2649   7.3278  22.7740  22.8048
 22.8442  22.8457  22.8775  22.9015  23.6761  23.6988  23.7127  23.7340
 33.0843  33.1542  44.1423  44.1518  44.1553  44.1625  44.2167  44.2392
 44.3047  44.3144
 --------------------------------------------------------------
 
          Ground-State Mulliken Net Atomic Charges

     Atom                 Charge (a.u.)
  ----------------------------------------
      1 Mg                    0.822701
      2 O                    -0.550878
      3 C                     0.399972
      4 O                    -0.559959
      5 C                    -0.280732
      6 H                     0.174576
      7 H                     0.193241
      8 N                    -0.229726
      9 C                    -0.302954
     10 H                     0.188209
     11 H                     0.174415
     12 C                    -0.285521
     13 H                     0.211630
     14 H                     0.169166
     15 C                    -0.282091
     16 H                     0.210043
     17 H                     0.169248
     18 N                    -0.228007
     19 C                    -0.299009
     20 H                     0.187884
     21 H                     0.173100
     22 C                    -0.281735
     23 H                     0.193661
     24 H                     0.175662
     25 C                     0.402651
     26 O                    -0.564252
     27 O                    -0.548019
     28 C                     0.397149
     29 O                    -0.549538
     30 O                    -0.563329
     31 C                     0.392893
     32 O                    -0.549752
     33 O                    -0.560701
  ----------------------------------------
  Sum of atomic charges =    -2.000000

         Ground-State ChElPG Net Atomic Charges

     Atom                 Charge (a.u.)
  ----------------------------------------
      1 Mg                    1.519831
      2 O                    -0.975381
      3 C                     0.969223
      4 O                    -0.851579
      5 C                    -0.598823
      6 H                     0.160276
      7 H                     0.182024
      8 N                     0.489978
      9 C                    -0.635436
     10 H                     0.176278
     11 H                     0.163439
     12 C                    -0.176880
     13 H                     0.064478
     14 H                     0.083029
     15 C                    -0.160610
     16 H                     0.062420
     17 H                     0.080215
     18 N                     0.462773
     19 C                    -0.633647
     20 H                     0.177531
     21 H                     0.166732
     22 C                    -0.595521
     23 H                     0.184849
     24 H                     0.163122
     25 C                     0.967948
     26 O                    -0.855004
     27 O                    -0.971126
     28 C                     1.021007
     29 O                    -0.858335
     30 O                    -0.972828
     31 C                     1.015060
     32 O                    -0.857630
     33 O                    -0.967413
  ----------------------------------------
  Sum of atomic charges =    -2.000000

 -----------------------------------------------------------------
                    Cartesian Multipole Moments
 -----------------------------------------------------------------
    Charge (ESU x 10^10)
                -9.6064
    Dipole Moment (Debye)
         X       7.1831      Y      -7.0903      Z       0.9572
       Tot      10.1383
    Quadrupole Moments (Debye-Ang)
        XX    -162.1515     XY     -36.8289     YY    -162.5587
        XZ      11.2988     YZ       1.5364     ZZ    -213.2144
    Octopole Moments (Debye-Ang^2)
       XXX     -89.8462    XXY      97.1107    XYY     -93.3289
       YYY      91.0807    XXZ     -19.6898    XYZ      -5.1929
       YYZ      34.1840    XZZ    -150.5749    YZZ     130.8512
       ZZZ     -55.4029
    Hexadecapole Moments (Debye-Ang^3)
      XXXX   -2709.1965   XXXY    -699.3484   XXYY   -1087.5072
      XYYY    -686.9549   YYYY   -2755.2483   XXXZ      81.6034
      XXYZ      73.5207   XYYZ     121.3692   YYYZ      40.0809
      XXZZ    -860.0284   XYZZ     -62.3203   YYZZ    -884.4342
      XZZZ    -103.0525   YZZZ    -226.9498   ZZZZ   -3540.2450
 -----------------------------------------------------------------
 Calculating analytic gradient of the SCF energy
 Gradient of CDS energy
            1           2           3           4           5           6
    1   0.0001946   0.0011081  -0.0011340  -0.0002766   0.0006577  -0.0000764
    2  -0.0001888  -0.0000397  -0.0000777   0.0002064   0.0002441  -0.0002870
    3   0.0000193   0.0004973   0.0022441  -0.0019421   0.0001228  -0.0000442
            7           8           9          10          11          12
    1  -0.0000740   0.0000000   0.0006222  -0.0002335  -0.0000541   0.0006276
    2  -0.0000354   0.0000000  -0.0001982  -0.0001736   0.0001849  -0.0002175
    3  -0.0002197   0.0000000  -0.0003554   0.0001008   0.0002017  -0.0004278
           13          14          15          16          17          18
    1  -0.0002835  -0.0000153   0.0001753  -0.0001992  -0.0000227   0.0000000
    2   0.0001970   0.0000637  -0.0005592   0.0002565  -0.0000184   0.0000000
    3   0.0000876   0.0002745   0.0005310  -0.0001539  -0.0002822   0.0000000
           19          20          21          22          23          24
    1   0.0001674   0.0001820  -0.0001587  -0.0002020   0.0000039   0.0002828
    2  -0.0005776   0.0002293   0.0000267  -0.0006749   0.0000887   0.0001029
    3   0.0004461  -0.0000894  -0.0002328  -0.0000873   0.0002125   0.0000724
           25          26          27          28          29          30
    1   0.0003293  -0.0005036   0.0001697  -0.0010263  -0.0007580   0.0014651
    2   0.0008498   0.0004649  -0.0011184   0.0024104  -0.0016873   0.0002233
    3  -0.0023482   0.0018786  -0.0003487  -0.0002731   0.0006017  -0.0004784
           31          32          33
    1  -0.0024684   0.0017470  -0.0002463
    2   0.0009404   0.0007908  -0.0014259
    3  -0.0001770  -0.0003838   0.0005535
 Gradient of SCF Energy
            1           2           3           4           5           6
    1  -0.0223073   0.0320922  -0.0164085  -0.0054596   0.0313391  -0.0276236
    2   0.0207920   0.0180084  -0.0249014   0.0100915   0.0292600   0.0193982
    3  -0.0033350   0.0043485   0.0538846  -0.0782136   0.0525431  -0.0147736
            7           8           9          10          11          12
    1  -0.0061823  -0.0067273   0.0453277   0.0015290  -0.0362248   0.0554030
    2  -0.0451393   0.0024293   0.0288948   0.0098193  -0.0128841  -0.0079149
    3  -0.0076196   0.0063992  -0.0481067   0.0479071  -0.0115913  -0.0529078
           13          14          15          16          17          18
    1   0.0013527  -0.0277046   0.0022797   0.0041945  -0.0084494  -0.0026009
    2   0.0006879   0.0063847  -0.0477416  -0.0061148   0.0285446   0.0053157
    3   0.0381824  -0.0114893   0.0596442  -0.0379072   0.0069142  -0.0059143
           19          20          21          22          23          24
    1  -0.0334443  -0.0031249   0.0099149  -0.0206731   0.0431938  -0.0224224
    2  -0.0410772  -0.0069103   0.0376166  -0.0379624   0.0092724   0.0275919
    3   0.0482309  -0.0480389   0.0091206  -0.0528046   0.0128072   0.0090175
           25          26          27          28          29          30
    1   0.0317036  -0.0209711  -0.0156594  -0.0028517  -0.0274378   0.0285467
    2   0.0135327   0.0125878  -0.0341830   0.0750247  -0.0807502  -0.0125375
    3  -0.0485240   0.0738931  -0.0038355  -0.0082148   0.0231558  -0.0122490
           31          32          33
    1  -0.0728863   0.0810287   0.0112536
    2   0.0025077   0.0284761  -0.0281194
    3  -0.0039935  -0.0126423   0.0161128
 Max gradient component =       8.103E-02
 RMS gradient           =       3.231E-02
 Computing fast CPCM-SWIG gradient
 Updating gradient with PCM contributions...
 -- total gradient after adding PCM contribution --
---------------------------------------------------
  Atom         X              Y              Z     
---------------------------------------------------
   1       0.000582      -0.001212      -0.000458
   2       0.001116      -0.001141       0.000319
   3       0.000566      -0.000434       0.001265
   4      -0.000047       0.000080      -0.001774
   5      -0.000458      -0.000387      -0.000938
   6      -0.001002      -0.000072      -0.001120
   7      -0.000640      -0.000531      -0.001114
   8      -0.000464      -0.000593      -0.000122
   9      -0.000513      -0.000570       0.000146
  10      -0.000755      -0.000512       0.000821
  11      -0.001066      -0.000549       0.000360
  12      -0.001040       0.000400      -0.000184
  13      -0.001271       0.000444       0.000565
  14      -0.001268       0.000651       0.000112
  15      -0.000458       0.001011      -0.000232
  16      -0.000488       0.001188      -0.000875
  17      -0.000685       0.001238      -0.000366
  18       0.000453       0.000343      -0.000251
  19       0.000530       0.000476      -0.000271
  20       0.000518       0.000699      -0.000881
  21       0.000508       0.001089      -0.000451
  22       0.000291       0.000454       0.000695
  23       0.000473       0.000655       0.000854
  24      -0.000043       0.001012       0.000807
  25       0.000438       0.000529       0.002381
  26      -0.000240      -0.000044       0.001249
  27       0.001268      -0.001175      -0.000283
  28       0.000333      -0.000329       0.000317
  29      -0.000433      -0.001619       0.000426
  30       0.001536       0.000167      -0.000093
  31       0.001869       0.000594      -0.000418
  32       0.001079       0.000104      -0.000316
  33      -0.000690      -0.001965      -0.000170
---------------------------------------------------
 Number of fixed atoms: 0
 Gradient time:  CPU 1233.78 s  wall 115.11 s
 Geometry Optimization Parameters
   NAtoms,    NIC,     NZ,  NCons,   NDum,   NFix, NCnnct, MaxDiis
       33     688       0       0       0       0       0       0


** GEOMETRY OPTIMIZATION IN DELOCALIZED INTERNAL COORDINATES **
   Searching for a Minimum

   Optimization Cycle:   1

                       Coordinates (Angstroms)
     ATOM                X               Y               Z
      1  Mg       -0.0124507249    0.0075219432    0.0175835464
      2  O         0.0139254005   -0.0627736841    2.0752511483
      3  C         1.1456925045   -0.0885209254    2.6481248430
      4  O         1.3232549621   -0.2389480008    3.8669426661
      5  C         2.3710360196    0.1409716142    1.7760246012
      6  H         3.2087769549   -0.4323017498    2.1704889313
      7  H         2.6070302463    1.1977272175    1.8937756706
      8  N         2.1599331614   -0.1387509331    0.3606179717
      9  C         2.7062738950    0.9089299218   -0.4829352789
     10  H         2.7451992808    0.5542249731   -1.5101026923
     11  H         3.7099480972    1.2080532360   -0.1839543942
     12  C         2.5651085244   -1.4939057112   -0.0069445450
     13  H         2.6136031816   -1.5505066844   -1.0910673763
     14  H         3.5532136168   -1.7325356308    0.3877971091
     15  C         1.5412251046   -2.4838715799    0.5129921882
     16  H         1.4596688408   -2.3972576996    1.5930627428
     17  H         1.8507840353   -3.5024900426    0.2773993639
     18  N         0.2364251048   -2.1792720031   -0.0696977603
     19  C        -0.8992725820   -2.6806594357    0.6813613873
     20  H        -0.6872092899   -2.5957451341    1.7444221873
     21  H        -1.1245854830   -3.7217366792    0.4558335727
     22  C         0.1612984420   -2.5478786201   -1.4777860854
     23  H        -0.8581848628   -2.8543061637   -1.7094200962
     24  H         0.8190409978   -3.3859171336   -1.7040159864
     25  C         0.4558440474   -1.4028773583   -2.4324257605
     26  O         0.7884641289   -1.6939692022   -3.5933739564
     27  O         0.2934481977   -0.2234256729   -1.9989232734
     28  C         1.7954279723    2.1333757498   -0.4881091324
     29  O         2.2829479984    3.2138171389   -0.8504413882
     30  O         0.5792725210    1.9631653982   -0.1511059847
     31  C        -2.1378833719   -1.8293766691    0.4192357106
     32  O        -3.2463681463   -2.3386402709    0.6423403495
     33  O        -1.9578120331   -0.6358096355    0.0151833948
   Point Group: c1    Number of degrees of freedom:    93


   Energy is  -1300.624102195


 Attempting to generate delocalized internal coordinates
 Initial Hessian constructed with Jon Baker's OPTIMIZE code

 93 Hessian modes will be used to form the next step
  Hessian Eigenvalues:
     0.002479    0.002551    0.002715    0.002924    0.006269    0.006521
     0.007404    0.008351    0.008789    0.009479    0.009932    0.010476
     0.013043    0.015872    0.016439    0.018686    0.018877    0.020715
     0.022506    0.026376    0.027794    0.028379    0.031090    0.038034
     0.040517    0.043488    0.047422    0.050090    0.050392    0.052396
     0.053132    0.055096    0.055463    0.060036    0.062852    0.065190
     0.072091    0.072403    0.078961    0.079390    0.079884    0.081544
     0.084945    0.086614    0.088531    0.092492    0.100341    0.100695
     0.116626    0.119262    0.121803    0.126337    0.132673    0.137861
     0.161101    0.174570    0.177231    0.179476    0.186230    0.190126
     0.198478    0.209381    0.223525    0.226432    0.233608    0.235769
     0.244256    0.264528    0.273868    0.305609    0.322084    0.327272
     0.334670    0.347588    0.347695    0.348009    0.348309    0.348764
     0.349087    0.349182    0.349214    0.351166    0.351233    0.351989
     0.352082    0.482284    0.489857    0.491840    0.496641    0.861694
     0.867167    0.870017    0.872474

 Minimum search - taking simple RFO step
 Searching for Lamda that Minimizes Along All modes
 Value Taken    Lamda =  -0.00089780
 Calculated Step too Large.  Step scaled by  0.075025
 Step Taken.  Stepsize is  0.010000

                             Maximum     Tolerance    Cnvgd?
         Gradient           0.008710      0.000040      NO
         Displacement       0.004614      0.000100      NO
         Energy change     *********      0.000000      NO


 New Cartesian Coordinates Obtained by Inverse Iteration

 Displacement from previous Coordinates is:  0.014155
 ----------------------------------------------------------------
             Standard Nuclear Orientation (Angstroms)
    I     Atom           X                Y                Z
 ----------------------------------------------------------------
    1      Mg     -0.0126008119     0.0076977398     0.0175630582
    2      O       0.0137687700    -0.0621188474     2.0752581325
    3      C       1.1454813802    -0.0877748557     2.6483558591
    4      O       1.3227332250    -0.2379196899     3.8673354886
    5      C       2.3712999235     0.1417136189     1.7766612386
    6      H       3.2090319129    -0.4311934192     2.1720295503
    7      H       2.6072386302     1.1985265995     1.8948238250
    8      N       2.1606440042    -0.1385202868     0.3609284752
    9      C       2.7067395821     0.9093930625    -0.4830699165
   10      H       2.7459640816     0.5547938388    -1.5103374723
   11      H       3.7104885326     1.2088775610    -0.1842769212
   12      C       2.5662107553    -1.4941845805    -0.0061066811
   13      H       2.6164238940    -1.5508503244    -1.0902195972
   14      H       3.5540774901    -1.7330346000     0.3894921444
   15      C       1.5416782537    -2.4849451919     0.5124541264
   16      H       1.4602171572    -2.3999646017     1.5927455842
   17      H       1.8515886280    -3.5034381874     0.2761126591
   18      N       0.2363041088    -2.1799392487    -0.0699488341
   19      C      -0.8996926462    -2.6810869832     0.6815061227
   20      H      -0.6876727401    -2.5964743585     1.7446803359
   21      H      -1.1253308007    -3.7222530997     0.4561261080
   22      C       0.1606093981    -2.5482299502    -1.4785251018
   23      H      -0.8589662816    -2.8545961718    -1.7102609865
   24      H       0.8179988137    -3.3864754091    -1.7055494171
   25      C       0.4549649734    -1.4028899645    -2.4332288752
   26      O       0.7872230892    -1.6937414222    -3.5944013449
   27      O       0.2928382586    -0.2234306079    -1.9993280186
   28      C       1.7953841613     2.1337889331    -0.4885700543
   29      O       2.2826906652     3.2143656075    -0.8510513087
   30      O       0.5792007994     1.9634115041    -0.1514004664
   31      C      -2.1383904013    -1.8292841167     0.4197165660
   32      O      -3.2470169770    -2.3382500608     0.6430654303
   33      O      -1.9580530874    -0.6356619144     0.0155539658
 ----------------------------------------------------------------
 Nuclear Repulsion Energy =        2070.37778356 hartrees
 There are       82 alpha and       82 beta electrons
 Discretize the solute cavity surface with Lebedev spheres
	Using 110 Lebedev grid points for each H atom
	Using 194 Lebedev grid points for other atoms
	Atomic van der Waals radii will be scaled by 1.20
 Remove points where switching function is < 1.0e-08
 Keep 2332 surface tesserae and discard 3062 interior tesserae
 Molecular Surface Area = 256.349 Angst**2
 Applying Cartesian multipole field
    Component          Value
    ---------          -----
     (2,0,0)        1.00000E-11
     (0,2,0)        2.00000E-11
     (0,0,2)       -3.00000E-11
 Nucleus-field energy     =     0.0000000039 hartrees
 Requested basis set is def2-TZVP
 There are 280 shells and 724 basis functions
 A cutoff of  1.0D-11 yielded  29577 shell pairs
 There are    192677 function pairs (    246923 Cartesian)
 Smallest overlap matrix eigenvalue = 6.64E-05
 Guess MOs from SCF MO coefficient file

 -----------------------------------------------------------------------
  General SCF calculation program by
  Eric Jon Sundstrom, Paul Horn, Yuezhi Mao, Dmitri Zuev, Alec White,
  David Stuck, Shaama M.S., Shane Yost, Joonho Lee, David Small,
  Daniel Levine, Susi Lehtola, Hugh Burton, Evgeny Epifanovsky
 -----------------------------------------------------------------------
 Exchange:     0.5600 Hartree-Fock + 1.0000 M05-2X
 Correlation:  1.0000 M05-2X
 Using SG-3 standard quadrature grid
 
 Citation of the SMD model:
 Marenich, A.V.; Cramer, C.J.; Truhlar, D.G.
 J. Phys. Chem. B 2009, 113, 6378-6396.
 iSolventCode=           1
 Solvent: water                                                           
 
 vradii
            1           2           3           4           5           6
    1   2.0414000   1.5200000   1.8500000   1.5200000   1.8500000   1.2000000
            7           8           9          10          11          12
    1   1.2000000   1.8900000   1.8500000   1.2000000   1.2000000   1.8500000
           13          14          15          16          17          18
    1   1.2000000   1.2000000   1.8500000   1.2000000   1.2000000   1.8900000
           19          20          21          22          23          24
    1   1.8500000   1.2000000   1.2000000   1.8500000   1.2000000   1.2000000
           25          26          27          28          29          30
    1   1.8500000   1.5200000   1.5200000   1.8500000   1.5200000   1.5200000
           31          32          33
    1   1.8500000   1.5200000   1.5200000
 using 16 threads for integral computing
 -------------------------------------------------------
 OpenMP Integral computing Module                
 Release: version 2.0, May 2017, Q-Chem Inc. Pleasanton 
 -------------------------------------------------------
 A restricted SCF calculation will be
 performed using Roothaan-Hall, DIIS
 SCF converges when DIIS error is below 1.0e-08
 ---------------------------------------
  Cycle       Energy         DIIS error
 ---------------------------------------
    1   -1302.0455870410      1.07e-04  Roothaan Step
 ---------------------------------------
  Cycle       Energy         DIIS error
 ---------------------------------------
    1   -1300.6384841108      1.50e-04  
    2   -1300.6389992995      1.60e-04  
    3   -1300.6402059978      2.94e-05  
    4   -1300.6402447334      1.22e-05  
    5   -1300.6402521787      4.76e-06  
    6   -1300.6402533012      1.62e-06  
    7   -1300.6402534471      2.84e-07  
    8   -1300.6402534544      9.96e-08  
    9   -1300.6402534551      4.32e-08  
   10   -1300.6402534552      1.63e-08  
   11   -1300.6402534553      5.76e-09  Convergence criterion met
 ---------------------------------------
 SCF time:   CPU 7203.33s  wall 514.00s 
(3)  G-ENP(liq) elect-nuc-pol free energy of system    -1300.640253455 a.u.
(4)  G-CDS(liq) cavity-dispersion-solvent structure 
     free energy                                               10.0942 kcal/mol
(6)  G-S(liq) free energy of system                    -1300.624167301 a.u.
 SCF   energy in the final basis set =    -1300.6402534553
 Total energy in the final basis set =    -1300.6241673009
 
 --------------------------------------------------------------
 
                    Orbital Energies (a.u.)
 --------------------------------------------------------------
 
 Alpha MOs
 -- Occupied --
-47.5682 -19.6392 -19.6386 -19.6370 -19.6369 -19.6286 -19.6285 -19.6278
-19.6272 -14.7946 -14.7945 -10.6774 -10.6772 -10.6758 -10.6754 -10.5871
-10.5871 -10.5862 -10.5861 -10.5857 -10.5852  -3.2397  -1.9445  -1.9435
 -1.9431  -1.1865  -1.1834  -1.1825  -1.1808  -1.0898  -1.0841  -1.0830
 -1.0809  -1.0663  -1.0459  -0.8759  -0.8431  -0.8410  -0.7933  -0.7349
 -0.6824  -0.6317  -0.6256  -0.6232  -0.6196  -0.6023  -0.5971  -0.5807
 -0.5653  -0.5651  -0.5585  -0.5396  -0.5364  -0.5335  -0.5319  -0.5221
 -0.5179  -0.5149  -0.5037  -0.4998  -0.4878  -0.4870  -0.4678  -0.4500
 -0.4445  -0.4347  -0.4345  -0.4119  -0.3804  -0.3713  -0.3689  -0.3665
 -0.3619  -0.3599  -0.3543  -0.3516  -0.3502  -0.3463  -0.3411  -0.3384
 -0.3191  -0.3062
 -- Virtual --
  0.0563   0.0696   0.0730   0.0764   0.0889   0.1026   0.1027   0.1076
  0.1288   0.1312   0.1366   0.1391   0.1443   0.1653   0.1679   0.1766
  0.1796   0.1805   0.1821   0.1829   0.1926   0.2102   0.2146   0.2214
  0.2255   0.2311   0.2371   0.2463   0.2522   0.2590   0.2654   0.2761
  0.2770   0.2861   0.2891   0.3049   0.3126   0.3137   0.3151   0.3233
  0.3269   0.3388   0.3419   0.3434   0.3538   0.3637   0.3655   0.3729
  0.3742   0.3838   0.3905   0.3931   0.3990   0.4076   0.4113   0.4134
  0.4188   0.4249   0.4294   0.4380   0.4415   0.4505   0.4609   0.4650
  0.4677   0.4738   0.4788   0.4854   0.4868   0.4876   0.4926   0.4960
  0.5009   0.5054   0.5064   0.5091   0.5202   0.5248   0.5280   0.5302
  0.5312   0.5400   0.5411   0.5551   0.5599   0.5656   0.5694   0.5735
  0.5772   0.5905   0.5945   0.5978   0.6003   0.6188   0.6214   0.6224
  0.6273   0.6299   0.6327   0.6394   0.6548   0.6565   0.6576   0.6612
  0.6689   0.6823   0.7020   0.7093   0.7177   0.7257   0.7307   0.7363
  0.7405   0.7425   0.7546   0.7566   0.7725   0.7817   0.7913   0.7968
  0.8079   0.8160   0.8224   0.8241   0.8381   0.8452   0.8557   0.8602
  0.8754   0.8776   0.8836   0.8927   0.9019   0.9118   0.9125   0.9231
  0.9366   0.9426   0.9492   0.9630   0.9660   0.9805   0.9819   0.9888
  1.0013   1.0076   1.0091   1.0249   1.0297   1.0387   1.0454   1.0571
  1.0734   1.0840   1.0885   1.0958   1.0998   1.1051   1.1111   1.1289
  1.1300   1.1422   1.1487   1.1530   1.1615   1.1747   1.1812   1.1870
  1.1952   1.1995   1.2115   1.2230   1.2313   1.2379   1.2623   1.2650
  1.2706   1.2885   1.3128   1.3294   1.3324   1.3417   1.3532   1.3646
  1.3684   1.4127   1.4240   1.4251   1.4335   1.4436   1.4532   1.4651
  1.4749   1.4866   1.5000   1.5269   1.5417   1.5438   1.5505   1.5575
  1.5591   1.5697   1.5812   1.5917   1.5965   1.6028   1.6066   1.6147
  1.6224   1.6307   1.6334   1.6468   1.6481   1.6604   1.6670   1.6706
  1.6721   1.6986   1.7040   1.7128   1.7185   1.7249   1.7399   1.7412
  1.7448   1.7643   1.7695   1.7877   1.8000   1.8126   1.8252   1.8386
  1.8404   1.8570   1.8636   1.8760   1.9082   1.9209   1.9329   1.9432
  1.9462   1.9491   1.9590   1.9643   1.9821   1.9871   1.9950   2.0034
  2.0067   2.0220   2.0293   2.0433   2.0604   2.0654   2.0710   2.0764
  2.0888   2.0961   2.0991   2.1141   2.1289   2.1365   2.1426   2.1501
  2.1558   2.1675   2.1704   2.1783   2.1865   2.1922   2.2022   2.2135
  2.2251   2.2276   2.2361   2.2418   2.2494   2.2815   2.2903   2.2990
  2.3049   2.3101   2.3174   2.3182   2.3398   2.3474   2.3490   2.3667
  2.3793   2.3828   2.3940   2.3959   2.4156   2.4282   2.4375   2.4506
  2.4556   2.4746   2.4928   2.5018   2.5095   2.5191   2.5198   2.5394
  2.5490   2.5522   2.5536   2.5790   2.5816   2.5939   2.6157   2.6177
  2.6239   2.6291   2.6598   2.6651   2.6666   2.6762   2.6976   2.7023
  2.7184   2.7224   2.7302   2.7473   2.7516   2.7524   2.7535   2.7742
  2.7951   2.7963   2.8030   2.8066   2.8150   2.8242   2.8298   2.8425
  2.8604   2.8639   2.8813   2.8942   2.8962   2.9058   2.9182   2.9231
  2.9242   2.9313   2.9614   2.9908   2.9954   3.0086   3.0164   3.0229
  3.0471   3.0493   3.0606   3.0704   3.0705   3.0760   3.0859   3.0925
  3.0942   3.0962   3.1086   3.1197   3.1253   3.1289   3.1395   3.1425
  3.1464   3.1652   3.1671   3.1787   3.1798   3.1913   3.1942   3.2068
  3.2087   3.2224   3.2274   3.2438   3.2472   3.2621   3.2667   3.2731
  3.2803   3.3031   3.3069   3.3262   3.3347   3.3401   3.3472   3.3644
  3.3707   3.3724   3.3765   3.3818   3.3891   3.3926   3.3937   3.4055
  3.4180   3.4218   3.4230   3.4303   3.4372   3.4450   3.4531   3.4649
  3.4688   3.4792   3.4897   3.4914   3.5034   3.5160   3.5260   3.5432
  3.5506   3.5564   3.5613   3.5749   3.5758   3.5842   3.5864   3.6062
  3.6110   3.6210   3.6227   3.6383   3.6398   3.6527   3.6539   3.6871
  3.7041   3.7133   3.7234   3.7317   3.7379   3.7756   3.7867   3.7919
  3.7986   3.8341   3.8604   3.8675   3.8872   3.8965   3.9231   3.9637
  3.9729   3.9780   3.9815   3.9838   3.9914   4.0135   4.0282   4.0325
  4.0432   4.0627   4.0646   4.0770   4.1059   4.1088   4.1275   4.1367
  4.1710   4.1800   4.2123   4.2470   4.2787   4.3787   4.3937   4.4051
  4.4230   4.4482   4.4551   4.4612   4.5084   4.5225   4.5624   4.5652
  4.5692   4.6003   4.6034   4.6222   4.6409   4.6487   4.6604   4.6641
  4.6848   4.7167   4.7321   4.8003   4.8098   4.8141   4.8229   4.8708
  4.9046   4.9557   5.0720   5.1052   5.1417   5.1520   5.1675   5.1727
  5.1875   5.1900   5.1914   5.1965   5.1993   5.2052   5.2101   5.2113
  5.2129   5.2198   5.2233   5.2337   5.2360   5.2527   5.2739   5.2765
  5.2913   5.3288   5.3350   5.3493   5.3649   5.3697   5.3850   5.4030
  5.4121   5.4257   5.4512   5.4689   5.5116   5.5347   5.5495   5.5553
  5.5569   5.5671   5.5705   5.5742   5.5871   5.5879   5.6499   5.6506
  5.6574   5.6593   5.7015   5.7109   5.7573   5.7698   5.8368   5.8403
  5.8531   5.8686   5.8978   5.9061   6.0437   6.0483   6.0632   6.0739
  6.1001   6.1022   6.1228   6.1251   6.1487   6.1531   6.1629   6.1780
  6.3269   6.3490   6.3598   6.3631   6.3700   6.3735   6.3769   6.3832
  6.3939   6.4491   6.4492   6.4563   6.4620   6.4716   6.4803   6.5028
  6.5093   6.5504   6.5764   6.6251   6.6966   6.7059   6.7291   6.7436
  6.7685   6.7773   6.7854   6.7926   6.8395   6.8423   6.8439   6.8566
  6.8703   6.8787   6.8946   6.9150   6.9441   6.9742   6.9768   6.9814
  7.0207   7.0407   7.1198   7.1236   7.1366   7.1438   7.1539   7.1590
  7.1787   7.2014   7.2052   7.2080   7.2645   7.3276  22.7728  22.8034
 22.8428  22.8442  22.8759  22.9001  23.6750  23.6978  23.7118  23.7329
 33.0834  33.1526  44.1420  44.1517  44.1552  44.1624  44.2163  44.2388
 44.3043  44.3138
 --------------------------------------------------------------
 
          Ground-State Mulliken Net Atomic Charges

     Atom                 Charge (a.u.)
  ----------------------------------------
      1 Mg                    0.823636
      2 O                    -0.550955
      3 C                     0.400181
      4 O                    -0.560086
      5 C                    -0.280726
      6 H                     0.174569
      7 H                     0.193297
      8 N                    -0.230422
      9 C                    -0.302820
     10 H                     0.188227
     11 H                     0.174460
     12 C                    -0.285270
     13 H                     0.211457
     14 H                     0.169271
     15 C                    -0.281861
     16 H                     0.209882
     17 H                     0.169348
     18 N                    -0.228763
     19 C                    -0.298882
     20 H                     0.187903
     21 H                     0.173156
     22 C                    -0.281709
     23 H                     0.193692
     24 H                     0.175634
     25 C                     0.402852
     26 O                    -0.564290
     27 O                    -0.548216
     28 C                     0.397149
     29 O                    -0.549592
     30 O                    -0.563425
     31 C                     0.392878
     32 O                    -0.549740
     33 O                    -0.560834
  ----------------------------------------
  Sum of atomic charges =    -2.000000

         Ground-State ChElPG Net Atomic Charges

     Atom                 Charge (a.u.)
  ----------------------------------------
      1 Mg                    1.519615
      2 O                    -0.975012
      3 C                     0.968731
      4 O                    -0.851528
      5 C                    -0.597703
      6 H                     0.160064
      7 H                     0.181981
      8 N                     0.488142
      9 C                    -0.634602
     10 H                     0.176218
     11 H                     0.163387
     12 C                    -0.176341
     13 H                     0.064554
     14 H                     0.083078
     15 C                    -0.160649
     16 H                     0.062581
     17 H                     0.080465
     18 N                     0.460466
     19 C                    -0.632532
     20 H                     0.177442
     21 H                     0.166637
     22 C                    -0.593349
     23 H                     0.184531
     24 H                     0.162608
     25 C                     0.967090
     26 O                    -0.854815
     27 O                    -0.970777
     28 C                     1.020482
     29 O                    -0.858205
     30 O                    -0.972472
     31 C                     1.014395
     32 O                    -0.857428
     33 O                    -0.967052
  ----------------------------------------
  Sum of atomic charges =    -2.000000

 -----------------------------------------------------------------
                    Cartesian Multipole Moments
 -----------------------------------------------------------------
    Charge (ESU x 10^10)
                -9.6064
    Dipole Moment (Debye)
         X       7.1921      Y      -7.0986      Z       0.9586
       Tot      10.1506
    Quadrupole Moments (Debye-Ang)
        XX    -162.1333     XY     -36.8321     YY    -162.5446
        XZ      11.3042     YZ       1.5347     ZZ    -213.2455
    Octopole Moments (Debye-Ang^2)
       XXX     -89.6526    XXY      97.0767    XYY     -93.3069
       YYY      90.9052    XXZ     -19.7133    XYZ      -5.1887
       YYZ      34.2182    XZZ    -150.4851    YZZ     130.7855
       ZZZ     -55.3249
    Hexadecapole Moments (Debye-Ang^3)
      XXXX   -2709.7885   XXXY    -699.5836   XXYY   -1087.6017
      XYYY    -687.1791   YYYY   -2755.8804   XXXZ      81.7106
      XXYZ      73.5816   XYYZ     121.4081   YYYZ      40.1158
      XXZZ    -860.1441   XYZZ     -62.5363   YYZZ    -884.6867
      XZZZ    -103.1277   YZZZ    -227.3349   ZZZZ   -3542.0828
 -----------------------------------------------------------------
 Calculating analytic gradient of the SCF energy
 Gradient of CDS energy
            1           2           3           4           5           6
    1   0.0001945   0.0011087  -0.0011352  -0.0002762   0.0006576  -0.0000760
    2  -0.0001887  -0.0000395  -0.0000772   0.0002062   0.0002439  -0.0002867
    3   0.0000194   0.0004977   0.0022452  -0.0019437   0.0001228  -0.0000439
            7           8           9          10          11          12
    1  -0.0000739   0.0000000   0.0006223  -0.0002332  -0.0000538   0.0006280
    2  -0.0000351   0.0000000  -0.0001982  -0.0001737   0.0001849  -0.0002176
    3  -0.0002194   0.0000000  -0.0003551   0.0001005   0.0002015  -0.0004266
           13          14          15          16          17          18
    1  -0.0002832  -0.0000153   0.0001750  -0.0001994  -0.0000227   0.0000000
    2   0.0001973   0.0000637  -0.0005597   0.0002563  -0.0000185   0.0000000
    3   0.0000868   0.0002744   0.0005298  -0.0001531  -0.0002820   0.0000000
           19          20          21          22          23          24
    1   0.0001675   0.0001821  -0.0001588  -0.0002022   0.0000037   0.0002829
    2  -0.0005778   0.0002291   0.0000264  -0.0006749   0.0000886   0.0001025
    3   0.0004457  -0.0000891  -0.0002327  -0.0000869   0.0002123   0.0000721
           25          26          27          28          29          30
    1   0.0003288  -0.0005033   0.0001695  -0.0010277  -0.0007583   0.0014664
    2   0.0008517   0.0004647  -0.0011198   0.0024116  -0.0016888   0.0002235
    3  -0.0023491   0.0018800  -0.0003493  -0.0002736   0.0006024  -0.0004790
           31          32          33
    1  -0.0024692   0.0017480  -0.0002467
    2   0.0009425   0.0007907  -0.0014277
    3  -0.0001769  -0.0003843   0.0005542
 Gradient of SCF Energy
            1           2           3           4           5           6
    1  -0.0223561   0.0320592  -0.0164525  -0.0054279   0.0313263  -0.0275483
    2   0.0208450   0.0179797  -0.0248466   0.0100809   0.0292830   0.0193690
    3  -0.0033096   0.0043413   0.0538199  -0.0781094   0.0526286  -0.0147309
            7           8           9          10          11          12
    1  -0.0061540  -0.0068273   0.0453602   0.0015314  -0.0361381   0.0554614
    2  -0.0450908   0.0024436   0.0289034   0.0098319  -0.0128795  -0.0079626
    3  -0.0075727   0.0063161  -0.0481648   0.0478423  -0.0115813  -0.0527407
           13          14          15          16          17          18
    1   0.0013414  -0.0275700   0.0023519   0.0042040  -0.0084083  -0.0026237
    2   0.0006779   0.0063445  -0.0478107  -0.0060962   0.0284160   0.0054225
    3   0.0381151  -0.0115165   0.0595160  -0.0378308   0.0069619  -0.0058523
           19          20          21          22          23          24
    1  -0.0334595  -0.0031468   0.0099131  -0.0206885   0.0431500  -0.0223845
    2  -0.0411186  -0.0069099   0.0375256  -0.0379720   0.0092401   0.0275280
    3   0.0482980  -0.0479723   0.0091201  -0.0528755   0.0127534   0.0089905
           25          26          27          28          29          30
    1   0.0316206  -0.0209286  -0.0156321  -0.0028958  -0.0273813   0.0284526
    2   0.0135442   0.0125589  -0.0341140   0.0750280  -0.0806340  -0.0125336
    3  -0.0485777   0.0738054  -0.0038106  -0.0082647   0.0231401  -0.0122152
           31          32          33
    1  -0.0729459   0.0809391   0.0112576
    2   0.0025236   0.0284248  -0.0280020
    3  -0.0039391  -0.0126505   0.0160660
 Max gradient component =       8.094E-02
 RMS gradient           =       3.229E-02
 Computing fast CPCM-SWIG gradient
 Updating gradient with PCM contributions...
 -- total gradient after adding PCM contribution --
---------------------------------------------------
  Atom         X              Y              Z     
---------------------------------------------------
   1       0.000495      -0.001123      -0.000434
   2       0.001022      -0.001117       0.000323
   3       0.000545      -0.000431       0.001222
   4      -0.000029       0.000074      -0.001672
   5      -0.000424      -0.000336      -0.000870
   6      -0.000922      -0.000070      -0.001029
   7      -0.000604      -0.000493      -0.001018
   8      -0.000532      -0.000509      -0.000177
   9      -0.000477      -0.000538       0.000070
  10      -0.000722      -0.000470       0.000758
  11      -0.000974      -0.000539       0.000349
  12      -0.000917       0.000356      -0.000146
  13      -0.001184       0.000405       0.000542
  14      -0.001151       0.000608       0.000079
  15      -0.000403       0.000891      -0.000222
  16      -0.000440       0.001107      -0.000826
  17      -0.000640       0.001127      -0.000312
  18       0.000352       0.000400      -0.000187
  19       0.000492       0.000447      -0.000192
  20       0.000476       0.000668      -0.000817
  21       0.000501       0.000995      -0.000431
  22       0.000258       0.000416       0.000628
  23       0.000443       0.000614       0.000775
  24      -0.000035       0.000931       0.000738
  25       0.000405       0.000509       0.002272
  26      -0.000197      -0.000062       0.001136
  27       0.001244      -0.001058      -0.000278
  28       0.000313      -0.000320       0.000253
  29      -0.000383      -0.001489       0.000403
  30       0.001417       0.000190      -0.000044
  31       0.001788       0.000580      -0.000363
  32       0.000965       0.000062      -0.000306
  33      -0.000685      -0.001824      -0.000222
---------------------------------------------------
 Number of fixed atoms: 0
 Gradient time:  CPU 1230.73 s  wall 115.63 s
 Geometry Optimization Parameters
   NAtoms,    NIC,     NZ,  NCons,   NDum,   NFix, NCnnct, MaxDiis
       33     688       0       0       0       0       0       0

 Cartesian Hessian Update
 Hessian updated using BFGS update


** GEOMETRY OPTIMIZATION IN DELOCALIZED INTERNAL COORDINATES **
   Searching for a Minimum

   Optimization Cycle:   2

                       Coordinates (Angstroms)
     ATOM                X               Y               Z
      1  Mg       -0.0126008119    0.0076977398    0.0175630582
      2  O         0.0137687700   -0.0621188474    2.0752581325
      3  C         1.1454813802   -0.0877748557    2.6483558591
      4  O         1.3227332250   -0.2379196899    3.8673354886
      5  C         2.3712999235    0.1417136189    1.7766612386
      6  H         3.2090319129   -0.4311934192    2.1720295503
      7  H         2.6072386302    1.1985265995    1.8948238250
      8  N         2.1606440042   -0.1385202868    0.3609284752
      9  C         2.7067395821    0.9093930625   -0.4830699165
     10  H         2.7459640816    0.5547938388   -1.5103374723
     11  H         3.7104885326    1.2088775610   -0.1842769212
     12  C         2.5662107553   -1.4941845805   -0.0061066811
     13  H         2.6164238940   -1.5508503244   -1.0902195972
     14  H         3.5540774901   -1.7330346000    0.3894921444
     15  C         1.5416782537   -2.4849451919    0.5124541264
     16  H         1.4602171572   -2.3999646017    1.5927455842
     17  H         1.8515886280   -3.5034381874    0.2761126591
     18  N         0.2363041088   -2.1799392487   -0.0699488341
     19  C        -0.8996926462   -2.6810869832    0.6815061227
     20  H        -0.6876727401   -2.5964743585    1.7446803359
     21  H        -1.1253308007   -3.7222530997    0.4561261080
     22  C         0.1606093981   -2.5482299502   -1.4785251018
     23  H        -0.8589662816   -2.8545961718   -1.7102609865
     24  H         0.8179988137   -3.3864754091   -1.7055494171
     25  C         0.4549649734   -1.4028899645   -2.4332288752
     26  O         0.7872230892   -1.6937414222   -3.5944013449
     27  O         0.2928382586   -0.2234306079   -1.9993280186
     28  C         1.7953841613    2.1337889331   -0.4885700543
     29  O         2.2826906652    3.2143656075   -0.8510513087
     30  O         0.5792007994    1.9634115041   -0.1514004664
     31  C        -2.1383904013   -1.8292841167    0.4197165660
     32  O        -3.2470169770   -2.3382500608    0.6430654303
     33  O        -1.9580530874   -0.6356619144    0.0155539658
   Point Group: c1    Number of degrees of freedom:    93


   Energy is  -1300.624167301

 Hessian updated using BFGS update

 93 Hessian modes will be used to form the next step
  Hessian Eigenvalues:
     0.002478    0.002547    0.002714    0.002926    0.006202    0.006503
     0.007405    0.008334    0.008916    0.009572    0.009918    0.010461
     0.012444    0.015690    0.016438    0.018683    0.018692    0.020719
     0.022504    0.026376    0.027766    0.028382    0.031079    0.038037
     0.040373    0.042798    0.047089    0.049550    0.050157    0.051370
     0.053141    0.054879    0.055316    0.060015    0.062335    0.064942
     0.072101    0.072711    0.078989    0.079388    0.079695    0.081542
     0.084945    0.088207    0.088580    0.092242    0.099105    0.100628
     0.115922    0.118695    0.121779    0.126203    0.132663    0.134105
     0.160475    0.173590    0.177282    0.178698    0.186464    0.192988
     0.201250    0.209360    0.223510    0.226418    0.233598    0.235721
     0.245702    0.264546    0.277303    0.305637    0.326973    0.332446
     0.336402    0.347635    0.347888    0.348174    0.348638    0.348813
     0.349031    0.349196    0.350894    0.351045    0.351202    0.352040
     0.355443    0.482539    0.489814    0.493884    0.496922    0.862836
     0.865980    0.871066    0.875234

 Minimum search - taking simple RFO step
 Searching for Lamda that Minimizes Along All modes
 Value Taken    Lamda =  -0.00093371
 Calculated Step too Large.  Step scaled by  0.059848
 Step Taken.  Stepsize is  0.010000

                             Maximum     Tolerance    Cnvgd?
         Gradient           0.008042      0.000040      NO
         Displacement       0.003912      0.000100      NO
         Energy change     -0.000065      0.000000      NO


 New Cartesian Coordinates Obtained by Inverse Iteration

 Displacement from previous Coordinates is:  0.012831
 ----------------------------------------------------------------
             Standard Nuclear Orientation (Angstroms)
    I     Atom           X                Y                Z
 ----------------------------------------------------------------
    1      Mg     -0.0127036501     0.0078531045     0.0175469561
    2      O       0.0136063251    -0.0612923467     2.0751497006
    3      C       1.1452130640    -0.0869044068     2.6485243163
    4      O       1.3220424227    -0.2367328043     3.8676862876
    5      C       2.3715841292     0.1422280197     1.7772752835
    6      H       3.2091413801    -0.4305648591     2.1734377130
    7      H       2.6077745422     1.1990366311     1.8956825582
    8      N       2.1613835921    -0.1383295380     0.3612819971
    9      C       2.7072482240     0.9098677489    -0.4830202758
   10      H       2.7469193184     0.5552978262    -1.5103427575
   11      H       3.7109933257     1.2098131321    -0.1843708427
   12      C       2.5670948320    -1.4943736661    -0.0054558946
   13      H       2.6188196026    -1.5509799303    -1.0895870012
   14      H       3.5546445905    -1.7335487551     0.3910225859
   15      C       1.5420522443    -2.4857851486     0.5119527291
   16      H       1.4605870585    -2.4022986862     1.5924536845
   17      H       1.8523801164    -3.5040688627     0.2747740646
   18      N       0.2362510391    -2.1805958276    -0.0702306798
   19      C      -0.9000459093    -2.6815323449     0.6815313740
   20      H      -0.6879839528    -2.5973281958     1.7447964598
   21      H      -1.1260811637    -3.7227298645     0.4562681894
   22      C       0.1600932497    -2.5486227917    -1.4791755882
   23      H      -0.8595408327    -2.8551547013    -1.7108048713
   24      H       0.8173050580    -3.3869425157    -1.7068306388
   25      C       0.4540125664    -1.4029621526    -2.4340063839
   26      O       0.7857949529    -1.6935470560    -3.5954141366
   27      O       0.2921149194    -0.2235204482    -1.9996974325
   28      C       1.7953443785     2.1341338880    -0.4889503742
   29      O       2.2823707137     3.2148328462    -0.8516372581
   30      O       0.5791348343     1.9635334485    -0.1517460142
   31      C      -2.1387861061    -1.8291856299     0.4201816008
   32      O      -3.2475436302    -2.3377766693     0.6438346393
   33      O      -1.9581444926    -0.6355088711     0.0160036835
 ----------------------------------------------------------------
 Nuclear Repulsion Energy =        2070.00429666 hartrees
 There are       82 alpha and       82 beta electrons
 Discretize the solute cavity surface with Lebedev spheres
	Using 110 Lebedev grid points for each H atom
	Using 194 Lebedev grid points for other atoms
	Atomic van der Waals radii will be scaled by 1.20
 Remove points where switching function is < 1.0e-08
 Keep 2335 surface tesserae and discard 3059 interior tesserae
 Molecular Surface Area = 256.451 Angst**2
 Applying Cartesian multipole field
    Component          Value
    ---------          -----
     (2,0,0)        1.00000E-11
     (0,2,0)        2.00000E-11
     (0,0,2)       -3.00000E-11
 Nucleus-field energy     =     0.0000000039 hartrees
 Requested basis set is def2-TZVP
 There are 280 shells and 724 basis functions
 A cutoff of  1.0D-11 yielded  29574 shell pairs
 There are    192666 function pairs (    246910 Cartesian)
 Smallest overlap matrix eigenvalue = 6.66E-05
 Guess MOs from SCF MO coefficient file

 -----------------------------------------------------------------------
  General SCF calculation program by
  Eric Jon Sundstrom, Paul Horn, Yuezhi Mao, Dmitri Zuev, Alec White,
  David Stuck, Shaama M.S., Shane Yost, Joonho Lee, David Small,
  Daniel Levine, Susi Lehtola, Hugh Burton, Evgeny Epifanovsky
 -----------------------------------------------------------------------
 Exchange:     0.5600 Hartree-Fock + 1.0000 M05-2X
 Correlation:  1.0000 M05-2X
 Using SG-3 standard quadrature grid
 
 Citation of the SMD model:
 Marenich, A.V.; Cramer, C.J.; Truhlar, D.G.
 J. Phys. Chem. B 2009, 113, 6378-6396.
 iSolventCode=           1
 Solvent: water                                                           
 
 vradii
            1           2           3           4           5           6
    1   2.0414000   1.5200000   1.8500000   1.5200000   1.8500000   1.2000000
            7           8           9          10          11          12
    1   1.2000000   1.8900000   1.8500000   1.2000000   1.2000000   1.8500000
           13          14          15          16          17          18
    1   1.2000000   1.2000000   1.8500000   1.2000000   1.2000000   1.8900000
           19          20          21          22          23          24
    1   1.8500000   1.2000000   1.2000000   1.8500000   1.2000000   1.2000000
           25          26          27          28          29          30
    1   1.8500000   1.5200000   1.5200000   1.8500000   1.5200000   1.5200000
           31          32          33
    1   1.8500000   1.5200000   1.5200000
 using 16 threads for integral computing
 -------------------------------------------------------
 OpenMP Integral computing Module                
 Release: version 2.0, May 2017, Q-Chem Inc. Pleasanton 
 -------------------------------------------------------
 A restricted SCF calculation will be
 performed using Roothaan-Hall, DIIS
 SCF converges when DIIS error is below 1.0e-08
 ---------------------------------------
  Cycle       Energy         DIIS error
 ---------------------------------------
    1   -1301.8633184384      1.06e-04  Roothaan Step
 ---------------------------------------
  Cycle       Energy         DIIS error
 ---------------------------------------
    1   -1300.6386904837      1.42e-04  
    2   -1300.6392883568      1.44e-04  
    3   -1300.6402655494      2.79e-05  
    4   -1300.6403012920      1.17e-05  
    5   -1300.6403081996      4.59e-06  
    6   -1300.6403092356      1.66e-06  
    7   -1300.6403093840      2.88e-07  
    8   -1300.6403093913      9.92e-08  
    9   -1300.6403093919      4.09e-08  
   10   -1300.6403093920      1.35e-08  
   11   -1300.6403093920      4.89e-09  Convergence criterion met
 ---------------------------------------
 SCF time:   CPU 7399.34s  wall 510.00s 
(3)  G-ENP(liq) elect-nuc-pol free energy of system    -1300.640309392 a.u.
(4)  G-CDS(liq) cavity-dispersion-solvent structure 
     free energy                                               10.0952 kcal/mol
(6)  G-S(liq) free energy of system                    -1300.624221712 a.u.
 SCF   energy in the final basis set =    -1300.6403093920
 Total energy in the final basis set =    -1300.6242217117
 
 --------------------------------------------------------------
 
                    Orbital Energies (a.u.)
 --------------------------------------------------------------
 
 Alpha MOs
 -- Occupied --
-47.5683 -19.6392 -19.6387 -19.6370 -19.6369 -19.6286 -19.6285 -19.6278
-19.6272 -14.7947 -14.7945 -10.6774 -10.6773 -10.6758 -10.6755 -10.5872
-10.5872 -10.5863 -10.5861 -10.5858 -10.5853  -3.2398  -1.9445  -1.9435
 -1.9431  -1.1864  -1.1834  -1.1824  -1.1808  -1.0898  -1.0840  -1.0830
 -1.0809  -1.0661  -1.0457  -0.8757  -0.8430  -0.8409  -0.7932  -0.7349
 -0.6823  -0.6316  -0.6255  -0.6231  -0.6196  -0.6022  -0.5969  -0.5806
 -0.5653  -0.5650  -0.5584  -0.5395  -0.5364  -0.5335  -0.5319  -0.5220
 -0.5179  -0.5148  -0.5037  -0.4998  -0.4878  -0.4870  -0.4677  -0.4500
 -0.4445  -0.4347  -0.4345  -0.4119  -0.3804  -0.3713  -0.3689  -0.3665
 -0.3618  -0.3599  -0.3543  -0.3516  -0.3502  -0.3463  -0.3411  -0.3384
 -0.3191  -0.3062
 -- Virtual --
  0.0563   0.0695   0.0730   0.0763   0.0888   0.1026   0.1027   0.1076
  0.1288   0.1312   0.1366   0.1391   0.1443   0.1652   0.1679   0.1766
  0.1795   0.1804   0.1821   0.1828   0.1926   0.2101   0.2145   0.2213
  0.2255   0.2311   0.2371   0.2462   0.2521   0.2590   0.2653   0.2761
  0.2769   0.2860   0.2890   0.3048   0.3124   0.3136   0.3151   0.3233
  0.3268   0.3387   0.3418   0.3433   0.3537   0.3636   0.3654   0.3728
  0.3741   0.3837   0.3904   0.3930   0.3990   0.4076   0.4112   0.4133
  0.4187   0.4248   0.4293   0.4379   0.4414   0.4504   0.4608   0.4649
  0.4675   0.4737   0.4787   0.4853   0.4867   0.4876   0.4925   0.4959
  0.5009   0.5053   0.5063   0.5090   0.5202   0.5248   0.5279   0.5302
  0.5310   0.5400   0.5410   0.5551   0.5598   0.5656   0.5693   0.5734
  0.5772   0.5904   0.5944   0.5977   0.6002   0.6187   0.6213   0.6223
  0.6272   0.6298   0.6326   0.6393   0.6547   0.6564   0.6575   0.6611
  0.6689   0.6822   0.7020   0.7092   0.7177   0.7256   0.7305   0.7362
  0.7404   0.7424   0.7544   0.7564   0.7725   0.7815   0.7912   0.7967
  0.8079   0.8160   0.8223   0.8240   0.8380   0.8452   0.8556   0.8602
  0.8754   0.8773   0.8836   0.8928   0.9018   0.9117   0.9125   0.9231
  0.9365   0.9426   0.9492   0.9628   0.9659   0.9805   0.9820   0.9886
  1.0012   1.0075   1.0090   1.0247   1.0296   1.0385   1.0453   1.0569
  1.0732   1.0839   1.0884   1.0955   1.0995   1.1050   1.1109   1.1289
  1.1299   1.1421   1.1486   1.1527   1.1612   1.1745   1.1812   1.1869
  1.1952   1.1994   1.2115   1.2228   1.2312   1.2379   1.2621   1.2649
  1.2704   1.2883   1.3128   1.3293   1.3324   1.3414   1.3532   1.3645
  1.3682   1.4127   1.4240   1.4251   1.4335   1.4434   1.4530   1.4649
  1.4749   1.4864   1.4998   1.5269   1.5416   1.5438   1.5505   1.5575
  1.5590   1.5696   1.5813   1.5916   1.5964   1.6026   1.6065   1.6148
  1.6223   1.6305   1.6334   1.6466   1.6480   1.6602   1.6668   1.6707
  1.6722   1.6985   1.7038   1.7128   1.7183   1.7249   1.7398   1.7412
  1.7447   1.7642   1.7694   1.7874   1.7999   1.8123   1.8250   1.8386
  1.8403   1.8567   1.8634   1.8758   1.9080   1.9207   1.9328   1.9430
  1.9460   1.9490   1.9586   1.9642   1.9820   1.9871   1.9948   2.0029
  2.0064   2.0219   2.0292   2.0431   2.0602   2.0651   2.0707   2.0761
  2.0886   2.0959   2.0989   2.1138   2.1288   2.1364   2.1424   2.1498
  2.1556   2.1672   2.1700   2.1780   2.1862   2.1920   2.2019   2.2133
  2.2249   2.2274   2.2358   2.2415   2.2491   2.2813   2.2902   2.2990
  2.3047   2.3098   2.3172   2.3180   2.3397   2.3473   2.3487   2.3666
  2.3790   2.3824   2.3938   2.3957   2.4153   2.4280   2.4372   2.4503
  2.4552   2.4743   2.4923   2.5014   2.5092   2.5186   2.5195   2.5393
  2.5487   2.5520   2.5534   2.5788   2.5814   2.5938   2.6155   2.6174
  2.6236   2.6289   2.6595   2.6651   2.6663   2.6762   2.6973   2.7022
  2.7183   2.7222   2.7299   2.7469   2.7514   2.7522   2.7534   2.7740
  2.7950   2.7963   2.8029   2.8062   2.8149   2.8238   2.8296   2.8422
  2.8602   2.8637   2.8808   2.8940   2.8959   2.9054   2.9179   2.9230
  2.9239   2.9310   2.9615   2.9904   2.9951   3.0083   3.0159   3.0227
  3.0470   3.0492   3.0606   3.0701   3.0703   3.0757   3.0856   3.0923
  3.0940   3.0959   3.1083   3.1196   3.1252   3.1287   3.1392   3.1423
  3.1463   3.1651   3.1669   3.1784   3.1796   3.1910   3.1939   3.2065
  3.2084   3.2223   3.2272   3.2435   3.2469   3.2618   3.2665   3.2729
  3.2797   3.3028   3.3066   3.3258   3.3342   3.3397   3.3469   3.3643
  3.3704   3.3721   3.3761   3.3815   3.3888   3.3924   3.3933   3.4051
  3.4177   3.4215   3.4226   3.4299   3.4370   3.4448   3.4530   3.4645
  3.4683   3.4788   3.4894   3.4912   3.5032   3.5158   3.5260   3.5431
  3.5504   3.5563   3.5609   3.5744   3.5754   3.5841   3.5861   3.6056
  3.6107   3.6207   3.6223   3.6381   3.6394   3.6525   3.6537   3.6866
  3.7036   3.7129   3.7231   3.7314   3.7376   3.7753   3.7863   3.7916
  3.7983   3.8337   3.8594   3.8672   3.8869   3.8961   3.9227   3.9632
  3.9724   3.9777   3.9813   3.9835   3.9909   4.0128   4.0278   4.0323
  4.0428   4.0622   4.0643   4.0768   4.1054   4.1085   4.1271   4.1363
  4.1704   4.1793   4.2117   4.2464   4.2780   4.3782   4.3932   4.4050
  4.4224   4.4480   4.4549   4.4610   4.5080   4.5224   4.5621   4.5647
  4.5685   4.5996   4.6028   4.6219   4.6404   4.6483   4.6598   4.6637
  4.6838   4.7162   4.7316   4.7998   4.8093   4.8140   4.8228   4.8699
  4.9040   4.9552   5.0714   5.1047   5.1412   5.1515   5.1674   5.1724
  5.1874   5.1900   5.1914   5.1964   5.1991   5.2051   5.2099   5.2112
  5.2128   5.2198   5.2231   5.2336   5.2358   5.2525   5.2736   5.2760
  5.2908   5.3285   5.3349   5.3491   5.3646   5.3693   5.3843   5.4024
  5.4115   5.4253   5.4508   5.4681   5.5108   5.5344   5.5491   5.5551
  5.5566   5.5670   5.5703   5.5741   5.5866   5.5878   5.6497   5.6504
  5.6572   5.6590   5.7011   5.7105   5.7570   5.7694   5.8365   5.8400
  5.8528   5.8684   5.8975   5.9058   6.0434   6.0480   6.0629   6.0736
  6.0998   6.1020   6.1225   6.1248   6.1484   6.1528   6.1626   6.1778
  6.3265   6.3489   6.3597   6.3629   6.3698   6.3733   6.3767   6.3830
  6.3937   6.4490   6.4491   6.4562   6.4619   6.4715   6.4802   6.5024
  6.5089   6.5502   6.5762   6.6249   6.6963   6.7056   6.7288   6.7434
  6.7684   6.7772   6.7852   6.7925   6.8394   6.8422   6.8438   6.8564
  6.8701   6.8782   6.8944   6.9147   6.9438   6.9741   6.9767   6.9813
  7.0203   7.0405   7.1197   7.1234   7.1364   7.1436   7.1538   7.1588
  7.1783   7.2009   7.2049   7.2075   7.2642   7.3275  22.7718  22.8023
 22.8416  22.8431  22.8745  22.8990  23.6742  23.6970  23.7110  23.7320
 33.0827  33.1513  44.1418  44.1515  44.1551  44.1622  44.2159  44.2385
 44.3040  44.3133
 --------------------------------------------------------------
 
          Ground-State Mulliken Net Atomic Charges

     Atom                 Charge (a.u.)
  ----------------------------------------
      1 Mg                    0.824371
      2 O                    -0.550961
      3 C                     0.400384
      4 O                    -0.560224
      5 C                    -0.280741
      6 H                     0.174570
      7 H                     0.193332
      8 N                    -0.230981
      9 C                    -0.302743
     10 H                     0.188232
     11 H                     0.174506
     12 C                    -0.285063
     13 H                     0.211325
     14 H                     0.169334
     15 C                    -0.281689
     16 H                     0.209756
     17 H                     0.169410
     18 N                    -0.229364
     19 C                    -0.298808
     20 H                     0.187909
     21 H                     0.173213
     22 C                    -0.281714
     23 H                     0.193703
     24 H                     0.175608
     25 C                     0.403006
     26 O                    -0.564294
     27 O                    -0.548373
     28 C                     0.397163
     29 O                    -0.549632
     30 O                    -0.563476
     31 C                     0.392871
     32 O                    -0.549700
     33 O                    -0.560931
  ----------------------------------------
  Sum of atomic charges =    -2.000000

         Ground-State ChElPG Net Atomic Charges

     Atom                 Charge (a.u.)
  ----------------------------------------
      1 Mg                    1.519541
      2 O                    -0.974650
      3 C                     0.968304
      4 O                    -0.851497
      5 C                    -0.596883
      6 H                     0.159947
      7 H                     0.181973
      8 N                     0.486564
      9 C                    -0.633906
     10 H                     0.176145
     11 H                     0.163376
     12 C                    -0.175897
[...]
      7  H         2.6837625676    1.1718052493    1.9355964185
      8  N         2.1836280524   -0.1360651531    0.3791388286
      9  C         2.7310094358    0.9256681544   -0.4546837760
     10  H         2.8008426829    0.5772247392   -1.4839112878
     11  H         3.7258674837    1.2413392844   -0.1391079143
     12  C         2.5862565467   -1.4950227282    0.0007557082
     13  H         2.6528622431   -1.5394193361   -1.0843772607
     14  H         3.5700967033   -1.7460524479    0.4036237356
     15  C         1.5558490536   -2.5007153188    0.4946694306
     16  H         1.4692469299   -2.4385454674    1.5775466782
     17  H         1.8813084901   -3.5134507687    0.2467671198
     18  N         0.2437248500   -2.2028412932   -0.0900976100
     19  C        -0.8976144317   -2.6954648109    0.6689240881
     20  H        -0.6774941916   -2.6312617021    1.7331399299
     21  H        -1.1424467578   -3.7324758065    0.4381864823
     22  C         0.1608429632   -2.5733807877   -1.5027810575
     23  H        -0.8416434590   -2.9441471227   -1.7195169557
     24  H         0.8599818564   -3.3739454247   -1.7468942430
     25  C         0.3742614323   -1.4178294822   -2.4718743787
     26  O         0.6142405791   -1.7026452636   -3.6573257524
     27  O         0.2493655015   -0.2393650023   -2.0195877895
     28  C         1.8039735494    2.1422704462   -0.4826359722
     29  O         2.2909996438    3.2312530551   -0.8230930302
     30  O         0.5785618101    1.9563355732   -0.1891498466
     31  C        -2.1339343886   -1.8248645846    0.4367123112
     32  O        -3.2435069565   -2.3193633415    0.6884865088
     33  O        -1.9471322947   -0.6317674829    0.0317853579
   Point Group: c1    Number of degrees of freedom:    93


   Energy is  -1300.624943062

 Hessian updated using BFGS update

 93 Hessian modes will be used to form the next step
  Hessian Eigenvalues:
     0.000309    0.001766    0.002588    0.002786    0.003848    0.005012
     0.006560    0.007076    0.007597    0.008455    0.009791    0.010508
     0.011730    0.014394    0.016362    0.017976    0.018685    0.019887
     0.022463    0.023893    0.026802    0.028422    0.031027    0.035504
     0.037794    0.042286    0.047429    0.048631    0.050292    0.053133
     0.054403    0.055117    0.057180    0.059985    0.064030    0.065515
     0.072059    0.072854    0.078486    0.079393    0.079999    0.081397
     0.084521    0.088257    0.089184    0.092365    0.098465    0.100693
     0.107552    0.118709    0.120532    0.126600    0.132622    0.134186
     0.162110    0.174465    0.177227    0.178690    0.185822    0.192538
     0.208574    0.221948    0.224267    0.226496    0.233232    0.235772
     0.254515    0.264646    0.288665    0.305652    0.327252    0.334173
     0.343482    0.347636    0.347896    0.348174    0.348652    0.348901
     0.349132    0.349197    0.351027    0.351201    0.352033    0.352130
     0.475995    0.484403    0.489778    0.494981    0.777732    0.863360
     0.869554    0.871144    1.211529

 Minimum search - taking simple RFO step
 Searching for Lamda that Minimizes Along All modes
 Value Taken    Lamda =   0.00000000
 Step Taken.  Stepsize is  0.005904

                             Maximum     Tolerance    Cnvgd?
         Gradient           0.000035      0.000040     YES
         Displacement       0.002168      0.000100      NO
         Energy change     -0.000000      0.000000     YES

 Final energy is   -1300.62494306154     


 ******************************
 **  OPTIMIZATION CONVERGED  **
 ******************************

                       Coordinates (Angstroms)
     ATOM                X               Y               Z
      1  Mg       -0.0010725998    0.0036117038    0.0019360108
      2  O         0.0014285825   -0.0005903663    2.0538588676
      3  C         1.1201868485   -0.0166946712    2.6515652756
      4  O         1.2668333177   -0.1001347696    3.8825726792
      5  C         2.3768596173    0.1337859131    1.8037657401
      6  H         3.1659310810   -0.4909404137    2.2241393780
      7  H         2.6837625676    1.1718052493    1.9355964185
      8  N         2.1836280524   -0.1360651531    0.3791388286
      9  C         2.7310094358    0.9256681544   -0.4546837760
     10  H         2.8008426829    0.5772247392   -1.4839112878
     11  H         3.7258674837    1.2413392844   -0.1391079143
     12  C         2.5862565467   -1.4950227282    0.0007557082
     13  H         2.6528622431   -1.5394193361   -1.0843772607
     14  H         3.5700967033   -1.7460524479    0.4036237356
     15  C         1.5558490536   -2.5007153188    0.4946694306
     16  H         1.4692469299   -2.4385454674    1.5775466782
     17  H         1.8813084901   -3.5134507687    0.2467671198
     18  N         0.2437248500   -2.2028412932   -0.0900976100
     19  C        -0.8976144317   -2.6954648109    0.6689240881
     20  H        -0.6774941916   -2.6312617021    1.7331399299
     21  H        -1.1424467578   -3.7324758065    0.4381864823
     22  C         0.1608429632   -2.5733807877   -1.5027810575
     23  H        -0.8416434590   -2.9441471227   -1.7195169557
     24  H         0.8599818564   -3.3739454247   -1.7468942430
     25  C         0.3742614323   -1.4178294822   -2.4718743787
     26  O         0.6142405791   -1.7026452636   -3.6573257524
     27  O         0.2493655015   -0.2393650023   -2.0195877895
     28  C         1.8039735494    2.1422704462   -0.4826359722
     29  O         2.2909996438    3.2312530551   -0.8230930302
     30  O         0.5785618101    1.9563355732   -0.1891498466
     31  C        -2.1339343886   -1.8248645846    0.4367123112
     32  O        -3.2435069565   -2.3193633415    0.6884865088
     33  O        -1.9471322947   -0.6317674829    0.0317853579

Z-matrix Print:
$molecule
-2 1
Mg
O  1 2.045879
C  2 1.273711 1 115.685290
O  3 1.240560 2 124.685880 1 169.259666 0
C  3 1.529803 2 117.561627 1 -8.746614 0
H  5 1.088852 3 106.026788 2 97.081513 0
H  5 1.090403 3 109.144025 2 -146.904386 0
N  5 1.456765 3 111.246025 2 -21.747007 0
C  8 1.462778 5 111.923078 3 -77.702201 0
H  9 1.090437 8 109.301170 5 12.808210 0
H  9 1.090702 8 111.423976 5 -105.435366 0
C  8 1.466986 5 115.112362 3 151.908943 0
H  12 1.088081 8 108.169672 5 -35.953304 0
H  12 1.092364 8 111.404348 5 82.178890 0
C  12 1.522205 8 110.032334 5 -155.846933 0
H  15 1.088112 12 109.818308 8 -59.574394 0
H  15 1.092251 12 109.708698 8 -177.655602 0
N  15 1.467089 12 109.995232 8 59.515902 0
C  18 1.456519 15 115.116006 12 -156.088818 0
H  19 1.088637 18 109.331887 15 35.100061 0
H  19 1.090218 18 112.792687 15 -85.027731 0
C  18 1.462820 15 112.592373 12 74.009363 0
H  22 1.090546 18 111.456778 15 25.783114 0
H  22 1.090606 18 109.275692 15 144.046126 0
C  22 1.523151 18 114.476825 15 -98.427275 0
O  25 1.242580 22 117.397231 18 164.271116 0
O  25 1.268440 22 117.657349 18 -18.058168 0
C  9 1.523363 8 114.508009 5 130.271175 0
O  28 1.242516 9 117.428961 8 164.177225 0
O  28 1.268516 9 117.649411 8 -18.225832 0
C  19 1.529822 18 111.204183 15 151.995820 0
O  31 1.240593 19 117.720255 18 159.529332 0
O  31 1.273712 19 117.568019 18 -22.270252 0
$end

 
 --------------------------------------------------------------
 
                    Orbital Energies (a.u.)
 --------------------------------------------------------------
 
 Alpha MOs
 -- Occupied --
-47.5682 -19.6388 -19.6388 -19.6374 -19.6373 -19.6286 -19.6286 -19.6272
-19.6272 -14.7960 -14.7960 -10.6778 -10.6777 -10.6760 -10.6759 -10.5881
-10.5880 -10.5877 -10.5875 -10.5870 -10.5865  -3.2396  -1.9444  -1.9434
 -1.9429  -1.1857  -1.1828  -1.1818  -1.1803  -1.0887  -1.0836  -1.0826
 -1.0804  -1.0631  -1.0428  -0.8738  -0.8417  -0.8396  -0.7923  -0.7349
 -0.6818  -0.6306  -0.6250  -0.6222  -0.6188  -0.6016  -0.5942  -0.5797
 -0.5650  -0.5642  -0.5578  -0.5388  -0.5363  -0.5328  -0.5320  -0.5217
 -0.5173  -0.5146  -0.5051  -0.4991  -0.4877  -0.4852  -0.4673  -0.4498
 -0.4440  -0.4333  -0.4325  -0.4128  -0.3802  -0.3714  -0.3690  -0.3660
 -0.3620  -0.3594  -0.3540  -0.3513  -0.3510  -0.3469  -0.3411  -0.3386
 -0.3178  -0.3058
 -- Virtual --
  0.0568   0.0696   0.0736   0.0769   0.0869   0.1012   0.1023   0.1063
  0.1293   0.1304   0.1362   0.1389   0.1437   0.1648   0.1670   0.1738
  0.1774   0.1789   0.1826   0.1835   0.1911   0.2087   0.2150   0.2212
  0.2249   0.2321   0.2339   0.2484   0.2505   0.2591   0.2661   0.2754
  0.2774   0.2842   0.2883   0.3047   0.3063   0.3136   0.3141   0.3239
  0.3257   0.3355   0.3421   0.3423   0.3521   0.3606   0.3622   0.3689
  0.3691   0.3837   0.3893   0.3909   0.3989   0.4060   0.4088   0.4110
  0.4184   0.4227   0.4276   0.4354   0.4381   0.4492   0.4585   0.4602
  0.4668   0.4729   0.4757   0.4833   0.4842   0.4882   0.4911   0.4933
  0.5005   0.5032   0.5046   0.5079   0.5193   0.5217   0.5279   0.5298
  0.5299   0.5389   0.5402   0.5546   0.5583   0.5670   0.5714   0.5729
  0.5748   0.5889   0.5924   0.5958   0.5998   0.6170   0.6184   0.6199
  0.6233   0.6269   0.6346   0.6404   0.6544   0.6548   0.6589   0.6605
  0.6689   0.6782   0.7014   0.7015   0.7167   0.7203   0.7264   0.7278
  0.7374   0.7422   0.7524   0.7548   0.7732   0.7766   0.7909   0.7918
  0.8085   0.8143   0.8193   0.8237   0.8400   0.8462   0.8538   0.8633
  0.8704   0.8765   0.8826   0.8988   0.9000   0.9085   0.9121   0.9229
  0.9417   0.9428   0.9490   0.9583   0.9595   0.9794   0.9828   0.9880
  0.9954   1.0074   1.0114   1.0147   1.0260   1.0358   1.0383   1.0524
  1.0617   1.0819   1.0839   1.0874   1.0940   1.1022   1.1036   1.1320
  1.1322   1.1379   1.1380   1.1494   1.1524   1.1721   1.1764   1.1857
  1.1984   1.2007   1.2130   1.2181   1.2257   1.2370   1.2574   1.2589
  1.2756   1.2811   1.3132   1.3275   1.3335   1.3380   1.3548   1.3613
  1.3639   1.4147   1.4242   1.4272   1.4358   1.4431   1.4449   1.4587
  1.4759   1.4833   1.4963   1.5295   1.5373   1.5489   1.5536   1.5569
  1.5581   1.5652   1.5843   1.5914   1.5934   1.6007   1.6031   1.6166
  1.6183   1.6217   1.6334   1.6450   1.6461   1.6503   1.6650   1.6808
  1.6810   1.6951   1.6961   1.7117   1.7177   1.7242   1.7348   1.7407
  1.7426   1.7564   1.7661   1.7783   1.7956   1.8053   1.8191   1.8340
  1.8363   1.8438   1.8533   1.8777   1.9052   1.9108   1.9278   1.9326
  1.9401   1.9498   1.9531   1.9637   1.9773   1.9827   1.9906   1.9946
  1.9983   2.0261   2.0268   2.0361   2.0566   2.0576   2.0669   2.0736
  2.0853   2.0955   2.1015   2.1202   2.1218   2.1381   2.1422   2.1432
  2.1482   2.1615   2.1669   2.1718   2.1747   2.1892   2.1944   2.2066
  2.2234   2.2250   2.2270   2.2339   2.2378   2.2738   2.2897   2.2950
  2.3013   2.3036   2.3126   2.3143   2.3391   2.3393   2.3453   2.3616
  2.3721   2.3751   2.3868   2.3966   2.4052   2.4206   2.4353   2.4497
  2.4522   2.4663   2.4787   2.4917   2.5036   2.5089   2.5090   2.5333
  2.5451   2.5457   2.5487   2.5756   2.5767   2.5953   2.6092   2.6124
  2.6146   2.6233   2.6593   2.6616   2.6654   2.6835   2.6965   2.6981
  2.7139   2.7194   2.7264   2.7396   2.7489   2.7509   2.7543   2.7714
  2.7903   2.7958   2.7980   2.8043   2.8132   2.8206   2.8231   2.8311
  2.8535   2.8547   2.8704   2.8861   2.8867   2.8965   2.9113   2.9165
  2.9177   2.9191   2.9668   2.9864   2.9881   3.0025   3.0044   3.0163
  3.0461   3.0464   3.0522   3.0632   3.0660   3.0701   3.0752   3.0872
  3.0884   3.0976   3.1000   3.1185   3.1232   3.1247   3.1337   3.1353
  3.1476   3.1583   3.1679   3.1700   3.1757   3.1894   3.1896   3.2036
  3.2042   3.2238   3.2259   3.2361   3.2380   3.2563   3.2648   3.2674
  3.2704   3.2951   3.2997   3.3109   3.3210   3.3315   3.3463   3.3608
  3.3623   3.3683   3.3700   3.3757   3.3801   3.3809   3.3909   3.3994
  3.4088   3.4145   3.4182   3.4257   3.4345   3.4452   3.4562   3.4613
  3.4637   3.4764   3.4843   3.4924   3.4976   3.5130   3.5264   3.5363
  3.5403   3.5552   3.5555   3.5707   3.5755   3.5781   3.5814   3.5931
  3.6017   3.6141   3.6219   3.6270   3.6328   3.6478   3.6484   3.6778
  3.6997   3.7096   3.7193   3.7267   3.7379   3.7684   3.7781   3.7823
  3.7953   3.8312   3.8438   3.8693   3.8766   3.8908   3.9182   3.9575
  3.9597   3.9663   3.9759   3.9779   3.9798   3.9994   4.0220   4.0284
  4.0371   4.0534   4.0603   4.0694   4.0945   4.1061   4.1214   4.1313
  4.1531   4.1635   4.2030   4.2296   4.2586   4.3697   4.3804   4.4030
  4.4061   4.4437   4.4460   4.4594   4.5030   4.5213   4.5526   4.5565
  4.5586   4.5925   4.5957   4.6166   4.6366   4.6438   4.6473   4.6614
  4.6717   4.7150   4.7213   4.7908   4.7915   4.8188   4.8240   4.8549
  4.9001   4.9477   5.0643   5.0980   5.1314   5.1422   5.1649   5.1674
  5.1856   5.1894   5.1901   5.1956   5.1963   5.2024   5.2077   5.2098
  5.2119   5.2188   5.2193   5.2299   5.2329   5.2488   5.2654   5.2696
  5.2810   5.3236   5.3327   5.3445   5.3613   5.3632   5.3784   5.3938
  5.4009   5.4146   5.4397   5.4585   5.4961   5.5295   5.5417   5.5532
  5.5548   5.5651   5.5681   5.5706   5.5797   5.5854   5.6464   5.6492
  5.6526   5.6552   5.6877   5.6943   5.7524   5.7655   5.8346   5.8352
  5.8509   5.8668   5.8955   5.9026   6.0413   6.0448   6.0561   6.0674
  6.0987   6.1003   6.1221   6.1238   6.1442   6.1484   6.1578   6.1717
  6.3252   6.3464   6.3558   6.3592   6.3674   6.3684   6.3739   6.3802
  6.3907   6.4475   6.4479   6.4548   6.4594   6.4705   6.4766   6.4930
  6.4959   6.5498   6.5718   6.6227   6.6923   6.7012   6.7239   6.7381
  6.7674   6.7770   6.7799   6.7859   6.8377   6.8387   6.8399   6.8486
  6.8661   6.8690   6.8918   6.9148   6.9397   6.9740   6.9769   6.9798
  7.0159   7.0360   7.1175   7.1218   7.1328   7.1413   7.1516   7.1570
  7.1737   7.1955   7.2027   7.2049   7.2642   7.3404  22.7535  22.7855
 22.8210  22.8233  22.8518  22.8810  23.6625  23.6876  23.6972  23.7185
 33.0822  33.1318  44.1413  44.1455  44.1510  44.1580  44.2023  44.2276
 44.2959  44.2973
 --------------------------------------------------------------
 
          Ground-State Mulliken Net Atomic Charges

     Atom                 Charge (a.u.)
  ----------------------------------------
      1 Mg                    0.827398
      2 O                    -0.547206
      3 C                     0.406315
      4 O                    -0.564384
      5 C                    -0.287715
      6 H                     0.178334
      7 H                     0.193535
      8 N                    -0.237103
      9 C                    -0.304496
     10 H                     0.187687
     11 H                     0.175358
     12 C                    -0.278020
     13 H                     0.207691
     14 H                     0.170258
     15 C                    -0.277050
     16 H                     0.206992
     17 H                     0.170296
     18 N                    -0.236876
     19 C                    -0.302654
     20 H                     0.187307
     21 H                     0.174877
     22 C                    -0.287674
     23 H                     0.193410
     24 H                     0.178329
     25 C                     0.406824
     26 O                    -0.565088
     27 O                    -0.546933
     28 C                     0.397815
     29 O                    -0.550855
     30 O                    -0.560998
     31 C                     0.396777
     32 O                    -0.550826
     33 O                    -0.561326
  ----------------------------------------
  Sum of atomic charges =    -2.000000

         Ground-State ChElPG Net Atomic Charges

     Atom                 Charge (a.u.)
  ----------------------------------------
      1 Mg                    1.529512
      2 O                    -0.962678
      3 C                     0.952678
      4 O                    -0.852225
      5 C                    -0.561769
      6 H                     0.159029
      7 H                     0.179990
      8 N                     0.418252
      9 C                    -0.613956
     10 H                     0.175165
     11 H                     0.166110
     12 C                    -0.162959
     13 H                     0.068810
     14 H                     0.083114
     15 C                    -0.163284
     16 H                     0.069579
     17 H                     0.087133
     18 N                     0.399843
     19 C                    -0.612183
     20 H                     0.175043
     21 H                     0.166746
     22 C                    -0.544557
     23 H                     0.176560
     24 H                     0.155720
     25 C                     0.947445
     26 O                    -0.851076
     27 O                    -0.962518
     28 C                     1.006465
     29 O                    -0.856678
     30 O                    -0.962041
     31 C                     1.006629
     32 O                    -0.856238
     33 O                    -0.961659
  ----------------------------------------
  Sum of atomic charges =    -2.000000

 -----------------------------------------------------------------
                    Cartesian Multipole Moments
 -----------------------------------------------------------------
    Charge (ESU x 10^10)
                -9.6064
    Dipole Moment (Debye)
         X       8.0369      Y      -7.7505      Z       0.9831
       Tot      11.2084
    Quadrupole Moments (Debye-Ang)
        XX    -160.4609     XY     -37.9829     YY    -161.8998
        XZ      10.4945     YZ      -0.3620     ZZ    -214.8388
    Octopole Moments (Debye-Ang^2)
       XXX     -83.2540    XXY      92.2894    XYY     -91.7917
       YYY      83.8679    XXZ     -22.6833    XYZ      -5.6447
       YYZ      34.6689    XZZ    -138.4736    YZZ     125.3823
       ZZZ     -48.3653
    Hexadecapole Moments (Debye-Ang^3)
      XXXX   -2698.3474   XXXY    -710.3341   XXYY   -1083.7380
      XYYY    -700.8086   YYYY   -2772.3008   XXXZ      76.8349
      XXYZ      70.6261   XYYZ     114.1925   YYYZ      19.3417
      XXZZ    -847.7417   XYZZ     -86.2418   YYZZ    -893.4349
      XZZZ    -128.9855   YZZZ    -291.1967   ZZZZ   -3629.6462
 -----------------------------------------------------------------
Archival summary:
1\1\smp-n87.crc.pitt.edu\OPT\ProcedureUnspecified\BasisUnspecified\g1821012(2-,1)\kaw112\SunNov2904:58:482020SunNov2904:58:482020\0\\#,OPT,ProcedureUnspecified,BasisUnspecified,\\-2,1\Mg\O,1,2.04588\C,2,1.27371,1,115.685\O,3,1.24056,2,124.686,1,169.26,0\C,3,1.5298,2,117.562,1,-8.74661,0\H,5,1.08885,3,106.027,2,97.0815,0\H,5,1.0904,3,109.144,2,-146.904,0\N,5,1.45676,3,111.246,2,-21.747,0\C,8,1.46278,5,111.923,3,-77.7022,0\H,9,1.09044,8,109.301,5,12.8082,0\H,9,1.0907,8,111.424,5,-105.435,0\C,8,1.46699,5,115.112,3,151.909,0\H,12,1.08808,8,108.17,5,-35.9533,0\H,12,1.09236,8,111.404,5,82.1789,0\C,12,1.5222,8,110.032,5,-155.847,0\H,15,1.08811,12,109.818,8,-59.5744,0\H,15,1.09225,12,109.709,8,-177.656,0\N,15,1.46709,12,109.995,8,59.5159,0\C,18,1.45652,15,115.116,12,-156.089,0\H,19,1.08864,18,109.332,15,35.1001,0\H,19,1.09022,18,112.793,15,-85.0277,0\C,18,1.46282,15,112.592,12,74.0094,0\H,22,1.09055,18,111.457,15,25.7831,0\H,22,1.09061,18,109.276,15,144.046,0\C,22,1.52315,18,114.477,15,-98.4273,0\O,25,1.24258,22,117.397,18,164.271,0\O,25,1.26844,22,117.657,18,-18.0582,0\C,9,1.52336,8,114.508,5,130.271,0\O,28,1.24252,9,117.429,8,164.177,0\O,28,1.26852,9,117.649,8,-18.2258,0\C,19,1.52982,18,111.204,15,151.996,0\O,31,1.24059,19,117.72,18,159.529,0\O,31,1.27371,19,117.568,18,-22.2703,0\\\@

 Total job time:  64887.17s(wall), 896958.43s(cpu) 
 Sun Nov 29 04:58:49 2020

        *************************************************************
        *                                                           *
        *  Thank you very much for using Q-Chem.  Have a nice day.  *
        *                                                           *
        *************************************************************
