Jobname.Temp
SP        R                             6-31G(d)            
Number of atoms                            I                5
Charge                                     I                0
Multiplicity                               I                1
Number of electrons                        I               10
Number of alpha electrons                  I                5
Number of beta electrons                   I                5
Atomic numbers                             I   N=           5
           6           1           1           1           1
Current cartesian coordinates              R   N=          15
 -1.61754198E-05 -1.27303474E-05  1.63780889E-02  1.74181180E+00 -1.12956630E-03
  1.12752808E+00 -1.74212970E+00  1.03868310E-03  1.12704133E+00 -9.11999485E-04
 -1.68685995E+00 -1.17650818E+00  1.32694713E-03  1.68702722E+00 -1.17632975E+00
Nuclear charges                            R   N=           5
  6.00000000E+00  1.00000000E+00  1.00000000E+00  1.00000000E+00  1.00000000E+00
Number of basis functions                  I               23
Number of contracted shells                I               12
Number of primitive shells                 I               27
Highest angular momentum                   I                2
Largest degree of contraction              I                6
Shell types                                I   N=          12
           0          -1          -1           2           0           0
           0           0           0           0           0           0
Number of primitives per shell             I   N=          12
           6           3           1           1           3           1
           3           1           3           1           3           1
Shell to atom map                          I   N=          12
           1           1           1           1           2           2
           3           3           4           4           5           5
Primitive exponents                        R   N=          27
  3.04752490E+03  4.57369510E+02  1.03948690E+02  2.92101550E+01  9.28666300E+00
  3.16392700E+00  7.86827240E+00  1.88128850E+00  5.44249300E-01  1.68714400E-01
  8.00000000E-01  1.87311370E+01  2.82539370E+00  6.40121700E-01  1.61277800E-01
  1.87311370E+01  2.82539370E+00  6.40121700E-01  1.61277800E-01  1.87311370E+01
  2.82539370E+00  6.40121700E-01  1.61277800E-01  1.87311370E+01  2.82539370E+00
  6.40121700E-01  1.61277800E-01
Contraction coefficients                   R   N=          27
  1.83470016E-03  1.40373012E-02  6.88426061E-02  2.32184421E-01  4.67941342E-01
  3.62312032E-01 -1.19332409E-01 -1.60854212E-01  1.14345648E+00  1.00000000E+00
  1.00000000E+00  3.34945995E-02  2.34726947E-01  8.13757318E-01  1.00000000E+00
  3.34945995E-02  2.34726947E-01  8.13757318E-01  1.00000000E+00  3.34945995E-02
  2.34726947E-01  8.13757318E-01  1.00000000E+00  3.34945995E-02  2.34726947E-01
  8.13757318E-01  1.00000000E+00
P(S=P) Contraction coefficients            R   N=          27
  0.00000000E+00  0.00000000E+00  0.00000000E+00  0.00000000E+00  0.00000000E+00
  0.00000000E+00  6.89990956E-02  3.16423980E-01  7.44308252E-01  1.00000000E+00
  0.00000000E+00  0.00000000E+00  0.00000000E+00  0.00000000E+00  0.00000000E+00
  0.00000000E+00  0.00000000E+00  0.00000000E+00  0.00000000E+00  0.00000000E+00
  0.00000000E+00  0.00000000E+00  0.00000000E+00  0.00000000E+00  0.00000000E+00
  0.00000000E+00  0.00000000E+00
Coordinates of each shell                  R   N=          36
 -1.61754198E-05 -1.27303474E-05  1.63780889E-02 -1.61754198E-05 -1.27303474E-05
  1.63780889E-02 -1.61754198E-05 -1.27303474E-05  1.63780889E-02 -1.61754198E-05
 -1.27303474E-05  1.63780889E-02  1.74181180E+00 -1.12956630E-03  1.12752808E+00
  1.74181180E+00 -1.12956630E-03  1.12752808E+00 -1.74212970E+00  1.03868310E-03
  1.12704133E+00 -1.74212970E+00  1.03868310E-03  1.12704133E+00 -9.11999485E-04
 -1.68685995E+00 -1.17650818E+00 -9.11999485E-04 -1.68685995E+00 -1.17650818E+00
  1.32694713E-03  1.68702722E+00 -1.17632975E+00  1.32694713E-03  1.68702722E+00
 -1.17632975E+00
Overlap Matrix                             R   N=         276
  1.00000000E+00  2.19058872E-01  1.00000000E+00 -3.80356550E-22  0.00000000E+00
  1.00000000E+00 -2.72423747E-22  2.34898839E-21  0.00000000E+00  1.00000000E+00
 -2.73847379E-18  1.90691848E-19  0.00000000E+00 -4.49372315E-39  1.00000000E+00
  1.84261053E-01  8.12273068E-01 -2.91607341E-21 -1.45803671E-21  2.98605917E-18
  1.00000000E+00  1.77142679E-22 -2.49426387E-21  5.69754058E-01  4.05821287E-42
 -8.31121996E-39  0.00000000E+00  1.00000000E+00 -5.56340284E-23 -1.24713194E-21
  4.05821287E-42  5.69754058E-01 -4.15560998E-39  0.00000000E+00  0.00000000E+00
  1.00000000E+00 -2.99809335E-19  2.55412620E-18 -8.31121996E-39 -4.15560998E-39
  5.69754058E-01  0.00000000E+00  0.00000000E+00  0.00000000E+00  1.00000000E+00
  7.91027073E-02  7.10235064E-01  0.00000000E+00 -1.21282768E-21  3.45512653E-18
  6.29936196E-01  0.00000000E+00  0.00000000E+00  0.00000000E+00  1.00000000E+00
  7.91027073E-02  7.10235064E-01  0.00000000E+00 -3.63848303E-21  3.45512653E-18
  6.29936196E-01  0.00000000E+00  0.00000000E+00  0.00000000E+00  3.33333333E-01
  1.00000000E+00  7.91027073E-02  7.10235064E-01  0.00000000E+00 -1.21282768E-21
  1.03653796E-17  6.29936196E-01  0.00000000E+00  0.00000000E+00  0.00000000E+00
  3.33333333E-01  3.33333333E-01  1.00000000E+00  9.66996468E-42  0.00000000E+00
 -2.10067915E-21  0.00000000E+00  0.00000000E+00  0.00000000E+00  0.00000000E+00
  0.00000000E+00  0.00000000E+00  0.00000000E+00  0.00000000E+00  0.00000000E+00
  1.00000000E+00 -1.00024841E-38  0.00000000E+00  5.98445470E-18  0.00000000E+00
  0.00000000E+00  0.00000000E+00  0.00000000E+00  0.00000000E+00  0.00000000E+00
  0.00000000E+00  0.00000000E+00  0.00000000E+00  0.00000000E+00  1.00000000E+00
 -9.90204384E-39 -2.09195017E-38  0.00000000E+00  5.98445470E-18 -2.10067915E-21
  0.00000000E+00  0.00000000E+00  0.00000000E+00  0.00000000E+00  0.00000000E+00
  0.00000000E+00  0.00000000E+00  0.00000000E+00  0.00000000E+00  1.00000000E+00
  3.22654588E-02  2.71604305E-01  3.09614614E-01 -1.98520598E-04  1.97509903E-01
  3.75715315E-01  4.33972308E-01 -2.78257027E-04  2.76840383E-01  3.56000316E-01
  1.16516082E-01  2.13972740E-01 -2.65963388E-04  2.64609332E-01 -1.69663835E-04
  1.00000000E+00  9.18319546E-02  4.74640908E-01  2.23992457E-01 -1.43620858E-04
  1.42889665E-01  7.03030508E-01  4.91650427E-01 -3.15239437E-04  3.13634511E-01
  4.07551283E-01  3.50073522E-01  3.73463748E-01 -6.38329289E-05  6.35079469E-02
 -4.07204150E-05  6.58292049E-01  1.00000000E+00  3.22670405E-02  2.71611275E-01
 -3.09674459E-01  1.86897057E-04  1.97429177E-01  3.75719756E-01 -4.34048598E-01
  2.61960272E-04  2.76722393E-01  3.56090943E-01  1.16519741E-01  2.13894473E-01
 -2.50433529E-04 -2.64546089E-01  1.59660844E-04  1.40785455E-02  1.33917335E-01
  1.00000000E+00  9.18331960E-02  4.74645936E-01 -2.24031651E-01  1.35209266E-04
  1.42828648E-01  7.03035538E-01 -4.91734543E-01  2.96775328E-04  3.13499364E-01
  4.07574877E-01  3.50077597E-01  3.73447610E-01 -6.01042472E-05 -6.34912728E-02
  3.83187302E-05  1.33917335E-01  3.75768079E-01  6.58292049E-01  1.00000000E+00
  3.22688893E-02  2.71619422E-01 -1.59245278E-04 -2.99860725E-01 -2.12052247E-01
  3.75724947E-01 -2.23198181E-04 -4.20284793E-01 -2.97212429E-01  1.16524006E-01
  3.41145398E-01  2.28854476E-01  2.06613568E-04  1.46110736E-04  2.75128230E-01
  1.92200226E-02  1.51662650E-01  1.92211269E-02  1.51666126E-01  1.00000000E+00
  9.18346470E-02  4.74651812E-01 -1.15202329E-04 -2.16927337E-01 -1.53404315E-01
  7.03041419E-01 -2.52860286E-04 -4.76138883E-01 -3.36710718E-01  3.50082358E-01
  4.03990187E-01  3.77041018E-01  4.95860567E-05  3.50657283E-05  6.60291777E-02
  1.51662650E-01  4.05702112E-01  1.51666126E-01  4.05707839E-01  6.58292049E-01
  1.00000000E+00  3.22647783E-02  2.71601305E-01  2.38740636E-04  2.99872106E-01
 -2.12004353E-01  3.75713404E-01  3.34634090E-04  4.20319855E-01 -2.97158813E-01
  1.16514547E-01  3.41166637E-01  2.28801062E-01  3.09785896E-04 -2.19013230E-04
 -2.75093338E-01  1.92227640E-02  1.51671279E-01  1.92177487E-02  1.51655491E-01
  1.80244188E-02  1.47824615E-01  1.00000000E+00  9.18314205E-02  4.74638745E-01
  1.72719634E-04  2.16945893E-01 -1.53376966E-01  7.03028343E-01  3.79110195E-04
  4.76184426E-01 -3.36654091E-01  3.50071778E-01  4.03990275E-01  3.77021539E-01
  7.43513669E-05 -5.25651207E-05 -6.60248449E-02  1.51671279E-01  4.05716328E-01
  1.51655491E-01  4.05690319E-01  1.47824615E-01  3.99347926E-01  6.58292049E-01
  1.00000000E+00
Core Hamiltonian Matrix                    R   N=         276
 -1.98812393E+01 -4.08454889E+00 -6.71945104E+00 -1.16719685E-06 -8.50603776E-06
 -6.00098651E+00  6.86330346E-08 -1.48417472E-07 -5.70294678E-10 -5.99175730E+00
  1.76142241E-03  1.24557349E-02  2.19773168E-06 -5.72479139E-06 -5.98251396E+00
 -3.51967449E+00 -5.37815133E+00 -8.43235173E-06 -1.29123954E-06  1.16761456E-02
 -5.44218443E+00 -1.96083310E-07 -6.09127109E-06 -3.07770829E+00 -3.87721221E-10
  1.46984654E-06 -1.10957378E-05 -3.76811142E+00  1.15251531E-08 -1.16624292E-06
 -3.87721221E-10 -3.06984376E+00 -3.78721327E-06 -5.16370795E-06 -3.62892933E-10
 -3.75556294E+00  2.95907419E-04  8.29740955E-03  1.46984654E-06 -3.78721327E-06
 -3.06196784E+00  1.33300395E-02  1.29615359E-06 -3.20192485E-06 -3.74299799E+00
 -1.50239687E+00 -4.42449346E+00  1.69709709E-05  1.22212064E-06 -5.74970474E-02
 -3.78025489E+00  1.80943277E-05  1.02340803E-06 -5.67061159E-02 -4.78968756E+00
 -1.50214056E+00 -4.41659256E+00 -1.50445866E-05 -9.76434607E-06  6.70522330E-02
 -3.77186698E+00 -1.37830637E-05 -1.11369887E-05  6.35531194E-02 -2.27921773E+00
 -4.76815238E+00 -1.50188383E+00 -4.40867945E+00 -2.20456595E-05  7.81817870E-06
  1.96873081E-02 -3.76346652E+00 -2.07559243E-05  6.77303802E-06  1.54408597E-02
 -2.30950387E+00 -2.31013033E+00 -4.71692532E+00 -3.05919168E-11 -8.71165407E-10
  2.11677504E-06 -2.60579883E-05  1.38722240E-04 -8.21130525E-10  1.77259471E-06
 -2.38729666E-05  1.33944217E-04  8.55683461E-05 -8.02518634E-05 -5.31876433E-06
 -3.63765318E+00  1.18669151E-07  3.36351650E-06 -9.95878073E-02  1.38722240E-04
 -3.81842024E-05  3.14546475E-06 -9.82178739E-02  1.33944217E-04 -3.59503155E-05
  8.00357404E-06  1.20594605E-05 -1.12596680E-05 -3.92602852E-07 -3.72851160E+00
 -3.10452748E-07 -8.77230392E-06  1.38722240E-04  1.16137874E-01  1.35414827E-05
 -8.16111576E-06  1.33944217E-04  1.10077232E-01  1.17312460E-05 -2.26669362E-07
 -6.19615491E-06 -1.65272442E-05  2.08875984E-05 -9.21237006E-06 -3.73039099E+00
 -6.19891194E-01 -1.73765106E+00 -1.74184250E+00  1.11562717E-03 -1.10844125E+00
 -1.98648135E+00 -1.92070997E+00  1.23013401E-03 -1.22260314E+00 -1.94942042E+00
 -8.08292532E-01 -1.26990976E+00  1.26552013E-03 -1.25865851E+00  8.06289488E-04
 -4.04479419E+00 -1.75564610E+00 -3.08895663E+00 -1.21628379E+00  7.76875490E-04
 -7.66837413E-01 -3.51279406E+00 -1.77680263E+00  1.13302008E-03 -1.12108251E+00
 -2.39809178E+00 -2.09431199E+00 -2.21081791E+00  3.32487941E-04 -3.33232744E-01
  2.11297781E-04 -2.96176444E+00 -3.90042822E+00 -6.19921348E-01 -1.73769638E+00
  1.74217722E+00 -1.05138277E-03 -1.10798798E+00 -1.98651117E+00  1.92104832E+00
 -1.15943395E-03 -1.22208353E+00 -1.94985405E+00 -8.08316364E-01 -1.26954368E+00
  1.19283943E-03  1.25835354E+00 -7.60094814E-04 -1.19143796E-01 -7.62839130E-01
 -4.04481519E+00 -1.75566971E+00 -3.08898725E+00  1.21648731E+00 -7.34296965E-04
 -7.66507626E-01 -3.51281783E+00  1.77709219E+00 -1.07405318E-03 -1.12059567E+00
 -2.39821535E+00 -2.09433315E+00 -2.21073452E+00  3.14041026E-04  3.33147297E-01
 -2.05382094E-04 -7.62835836E-01 -1.86154047E+00 -2.96177709E+00 -3.90043727E+00
 -6.20100227E-01 -1.74063668E+00  8.96031167E-04  1.68862363E+00  1.19497177E+00
 -1.99036200E+00  9.88531446E-04  1.86269788E+00  1.31791371E+00 -8.09782363E-01
 -1.88031260E+00 -1.34526125E+00 -9.84196832E-04 -6.96528751E-04 -1.31304551E+00
 -1.53798887E-01 -8.48327217E-01 -1.53807018E-01 -8.48344702E-01 -4.05421703E+00
 -1.75582541E+00 -3.09242394E+00  6.21235784E-04  1.17668808E+00  8.36784026E-01
 -3.51855421E+00  9.08232772E-04  1.71943123E+00  1.22116167E+00 -2.09937706E+00
 -2.37830009E+00 -2.23474840E+00 -2.58398042E-04 -1.82872127E-04 -3.48651428E-01
 -8.47207125E-01 -1.97430275E+00 -8.47228097E-01 -1.97432712E+00 -2.96796324E+00
 -3.90930388E+00 -6.20021507E-01 -1.74051179E+00 -1.34649459E-03 -1.68868142E+00
  1.19469682E+00 -1.99027512E+00 -1.48517814E-03 -1.86283836E+00  1.31766461E+00
 -8.09717208E-01 -1.88039612E+00 -1.34498679E+00 -1.47923101E-03  1.04623678E-03
  1.31288059E+00 -1.53814359E-01 -8.48352359E-01 -1.53782212E-01 -8.48279027E-01
 -1.46030614E-01 -8.30567408E-01 -4.05413956E+00 -1.75576377E+00 -3.09233646E+00
 -9.43519923E-04 -1.17678874E+00  8.36633568E-01 -3.51847900E+00 -1.37880507E-03
 -1.71960048E+00  1.22095535E+00 -2.09931539E+00 -2.37829182E+00 -2.23463783E+00
 -3.91877393E-04  2.78022187E-04  3.48619033E-01 -8.47244081E-01 -1.97434030E+00
 -8.47174356E-01 -1.97424808E+00 -8.30579100E-01 -1.95355568E+00 -2.96791530E+00
 -3.90925897E+00
Number of independent functions            I               23
Alpha MO coefficients                      R   N=         529
 -9.92805101E-01 -4.97612309E-02 -2.94716379E-08  2.55985460E-09  4.32464072E-05
  1.46147255E-02  1.69158098E-07  4.97060707E-08 -2.04035401E-04  9.32031833E-03
  9.35794921E-03  9.35085073E-03  2.30841812E-08  2.01543046E-08 -3.32192985E-08
  1.75202467E-04 -2.55037540E-03  1.75250584E-04 -2.55033143E-03  1.44653497E-04
 -2.64099357E-03  1.44600365E-04 -2.64089953E-03  1.98405832E-01 -3.80106683E-01
 -3.85767759E-06  2.21459239E-06  6.53185534E-03 -3.61620980E-01 -2.61938855E-06
 -7.31627774E-07  3.04901250E-03 -3.12839727E-03 -1.72277618E-03  2.88338297E-04
 -3.43443875E-07  2.88755691E-07 -1.02320929E-06 -1.33904874E-01 -3.88607585E-02
 -1.33905816E-01 -3.88616929E-02 -1.35558320E-01 -3.84609896E-02 -1.35551399E-01
 -3.84594276E-02 -2.95989205E-06  6.69490865E-06 -4.45714939E-01 -2.00714046E-06
  4.53782060E-05  5.40854770E-06 -2.10983007E-01 -3.50080404E-07  2.10853433E-05
  1.12641164E-05 -5.67194802E-06 -6.34285343E-06  8.62018558E-07 -2.42528681E-02
  3.20164273E-05 -2.40427675E-01 -1.96195068E-01  2.40511536E-01  1.96262767E-01
  1.11643308E-04  9.29609015E-05 -1.98591848E-04 -1.62754101E-04 -1.10986600E-06
  1.60168188E-06 -1.90674682E-06  4.46402700E-01  2.37081308E-04  6.74645640E-06
 -1.22311311E-06  2.14370000E-01  1.12303062E-04  1.16185314E-05 -7.71037869E-06
 -3.63243131E-06  5.12289102E-06 -3.29584626E-05 -2.60581879E-02 -7.33684811E-05
 -6.09299601E-05  2.37136010E-04  2.00448557E-04 -2.39293451E-01 -2.03023576E-01
  2.39135516E-01  2.02893454E-01 -3.29017900E-03  7.17720730E-03  4.40243054E-05
 -2.32943405E-04  4.46765057E-01  7.76417796E-03  2.20930378E-05 -1.15915975E-04
  2.19260189E-01  2.36908395E-02 -2.19990944E-02 -2.31470219E-03 -3.39224825E-05
  1.09395699E-05  1.09257610E-05  1.68766932E-01  1.47625441E-01  1.68648125E-01
  1.47520721E-01 -1.69287171E-01 -1.46738359E-01 -1.69511235E-01 -1.46935844E-01
  1.62908087E-01 -1.96293961E-01 -7.53181523E-06 -1.90380916E-05 -3.39943169E-03
 -2.60422852E+00 -3.78215135E-05 -5.44713454E-05  1.25922952E-02  1.31560973E-02
  1.17738178E-02  1.31061923E-02 -1.33615301E-06  2.80041412E-08 -8.60434194E-07
  2.38950436E-02  1.00415695E+00  2.38965135E-02  1.00413562E+00  1.54160317E-02
  9.75694368E-01  1.54245222E-02  9.75760900E-01  2.19624466E-03  1.79266085E-03
  3.89420780E-05 -2.71675602E-04  3.78158718E-01 -7.76723076E-02  1.20132770E-04
 -9.13833895E-04  1.30985201E+00 -1.91427053E-02  1.88164889E-02  1.09473106E-03
  2.80642058E-05 -8.28618355E-06 -1.14831755E-05 -8.61057836E-02 -1.01785175E+00
 -8.60512245E-02 -1.01713428E+00  7.69107709E-02  1.08371491E+00  7.70525194E-02
  1.08560566E+00  7.40010875E-06 -5.57822819E-06 -9.82739525E-05  3.86225877E-01
  2.62069358E-04 -1.96551046E-04 -3.70854140E-04  1.35578362E+00  9.48624628E-04
 -1.15492570E-05  1.00564997E-05  3.50558395E-06 -3.54497906E-06  2.97340594E-05
  1.86106495E-02  3.82117085E-05  7.57466168E-04 -1.43200172E-04 -2.02638228E-03
  1.03244315E-01  1.52796254E+00 -1.03152234E-01 -1.52641784E+00  1.65218903E-06
 -5.86231327E-06  3.88474095E-01  1.01815522E-04 -3.40707436E-05 -1.27906101E-05
  1.41083633E+00  3.45212841E-04 -1.36998244E-04  8.88634736E-06 -4.31672958E-06
 -4.43455822E-06  6.47452977E-08 -1.80399083E-02  2.68391869E-05 -9.27932865E-02
 -1.56947026E+00  9.28335497E-02  1.57001843E+00  7.29643166E-05  1.12260277E-03
 -9.94657872E-05 -1.67563224E-03 -5.05620343E-05 -1.90878228E-02  8.66532785E-05
 -2.85856409E-04 -7.66387837E-01  3.53032381E-03 -1.89118755E-04  5.90237305E-04
  1.35495828E+00 -9.17956366E-02  8.20211507E-02  3.45901357E-03  1.28774031E-04
 -1.93475797E-05  4.83282112E-05 -2.94540908E-01 -5.07142344E-02 -2.94514634E-01
 -5.07647963E-02  2.74913442E-01  8.08124151E-02  2.74557071E-01  8.06015276E-02
 -1.73670239E-06 -2.60406154E-05 -6.15626897E-06  7.63462073E-01 -3.02855898E-04
  6.54588066E-05  1.07150742E-05 -1.45655498E+00  4.89259408E-04 -4.07765476E-05
  4.72722215E-05 -9.40782443E-06  1.91544887E-05 -1.31786758E-04 -1.01445710E-01
 -3.98498769E-04 -1.35073614E-04  1.26075758E-04  1.10244769E-04 -4.04315184E-01
 -1.87586068E-01  4.04541684E-01  1.87605120E-01  1.01447222E-06  1.90794050E-05
 -7.65183131E-01 -3.83831690E-06 -9.23617301E-05 -3.07231273E-05  1.55957047E+00
  9.59571253E-06  1.52460370E-04  3.03896770E-05 -2.60587408E-06 -2.34961062E-05
  2.91360959E-06 -1.03911618E-01  1.33652236E-04 -4.03880020E-01 -2.79570806E-01
  4.03919236E-01  2.79610118E-01  2.64037001E-04  1.48400962E-04 -2.62020023E-04
 -2.12635624E-04  1.32754213E-02 -4.34334850E-02 -1.12773599E-04  6.71095998E-04
 -8.37797652E-01 -3.70354724E-04  1.56631315E-04 -9.70776183E-04  1.21590593E+00
  1.81536044E-01 -1.67489452E-01 -1.28203828E-02 -2.56865402E-04  9.05953646E-05
  1.39997261E-04  5.79001796E-01 -1.02464512E+00  5.78581464E-01 -1.02385408E+00
 -4.29312162E-01  9.54287906E-01 -4.30394727E-01  9.56359131E-01  2.26509958E-05
 -1.89008943E-04  6.01769794E-05 -8.50731571E-01 -6.69658235E-04  2.59475884E-04
 -8.71769011E-05  1.22294860E+00  9.70803719E-04  1.33599149E-04 -1.06756792E-04
 -3.92022447E-05  3.81618465E-05 -2.76187059E-04 -2.03346280E-01 -3.44955124E-06
  1.37880065E-04  1.03274632E-03 -1.85097911E-03 -7.26411479E-01  1.39460662E+00
  7.25968552E-01 -1.39340010E+00  1.22193478E-05 -3.40918156E-06  8.57147277E-01
  5.95132794E-05 -1.13451635E-04 -8.05901248E-05 -1.22620946E+00 -8.43046835E-05
  1.69201933E-04  1.06007860E-04 -4.80563466E-05 -5.23487570E-05  4.96091413E-06
 -2.05483573E-01  2.78165004E-04 -7.32641807E-01  1.38280203E+00  7.33053590E-01
 -1.38338161E+00  4.44236592E-04 -7.18687680E-04 -5.99749357E-04  1.25110868E-03
 -9.93648845E-02  8.03561182E-01  5.74305063E-05 -1.36305251E-04 -9.45565159E-02
 -1.11066274E+00 -3.90338462E-05  1.99347837E-04  8.66126732E-02  2.98394934E-02
 -8.41973433E-03  4.34251148E-02 -4.61896447E-05 -1.20227067E-05 -3.92061940E-05
 -5.84212868E-01  4.52604112E-01 -5.84114774E-01  4.52500914E-01 -7.08957532E-01
  6.24891537E-01 -7.08745682E-01  6.24457299E-01  9.90603530E-02  2.05549183E+00
 -3.89003966E-06  4.82113268E-07 -1.96530471E-03 -5.43570862E+00 -8.07107430E-05
 -1.68565542E-05  1.06548410E-01  1.23871407E-01  1.41389298E-01  7.79146966E-02
  4.19818843E-05  1.78800111E-05 -3.57935767E-06  2.66483704E-01  1.02064810E+00
  2.66412950E-01  1.02067875E+00  3.10375862E-01  1.04240320E+00  3.10431726E-01
  1.04230384E+00 -7.20316313E-06 -6.94547890E-05  1.50474533E-06  6.26935356E-07
  1.10501767E-07  2.19738126E-04  1.41535230E-06  1.57654838E-06 -6.46645684E-06
  1.09265229E-03 -1.13598644E-03  3.79127926E-05  9.99999154E-01  3.34092346E-05
  1.83050922E-04 -3.78590698E-05 -3.29002397E-05 -3.15996527E-05 -3.43778592E-05
 -3.39214161E-05 -3.69998489E-05 -3.97069842E-05 -3.61572108E-05 -9.79029200E-03
 -9.38711040E-02 -1.95516784E-07 -3.32874896E-07 -2.17139642E-04  2.97526641E-01
  9.03784192E-06  4.33631427E-06 -7.82040948E-03  4.52047037E-01  5.41445758E-01
 -1.00073905E+00  1.05507217E-04  2.32021838E-04  1.06967682E-04 -4.86953242E-02
 -4.53403141E-02 -4.86885888E-02 -4.53374813E-02 -4.87833856E-02 -4.95828617E-02
 -4.87893572E-02 -4.95802705E-02  1.52381020E-06 -1.55046173E-05  1.45574911E-01
 -5.74878238E-05  1.92135993E-05  6.71981851E-06  4.87791609E-01 -1.69973508E-04
  5.64682324E-05 -2.65241833E-04  9.66251035E-07  2.70908851E-04 -3.64430756E-05
  1.12229240E+00 -1.00578458E-03 -6.66657200E-01  3.34830788E-02  6.66670800E-01
 -3.34731724E-02  1.82221285E-04 -1.19985632E-05 -1.55921163E-04 -2.08693805E-05
  4.29063343E-06 -2.88783528E-05  5.69985292E-05  1.49072614E-01 -1.30922715E-04
 -1.16438080E-05  1.87184376E-04  4.31243878E-01 -3.45473973E-04 -1.00162048E-03
  1.06952838E-03 -5.26585612E-05  2.09423108E-04 -1.01561563E-03 -1.12991017E+00
  6.70256477E-04 -1.24937245E-04  3.27523500E-04 -6.05941927E-05  6.72586355E-01
 -7.51026477E-02 -6.73481940E-01  7.52591594E-02  1.21054513E-03 -1.14337454E-02
  2.97529170E-05 -1.55253484E-04 -1.52431876E-01  1.44959178E-02  8.41144658E-05
 -4.25174800E-04 -3.81512619E-01 -1.01027451E+00  9.54892030E-01  6.28036084E-02
  1.45690133E-03 -1.68357945E-04  1.19539180E-03  4.89781594E-01 -8.86735152E-02
  4.89807719E-01 -8.86477078E-02 -4.72057781E-01  7.18775444E-02 -4.70681190E-01
  7.17393818E-02  4.88072281E-01 -2.93680094E+00  2.75156073E-06 -2.54607973E-06
 -5.60493952E-03 -2.44309633E+00 -2.65820641E-05 -8.04345143E-06  3.22672566E-02
  1.88307228E+00  1.87444533E+00  1.88065241E+00 -7.58522351E-06 -5.58126078E-06
  8.30926205E-06 -1.31394879E-01  4.88712934E-01 -1.31410291E-01  4.88713050E-01
 -1.24516225E-01  4.99575666E-01 -1.24492056E-01  4.99550384E-01
Alpha Orbital Energies                     R   N=          23
 -1.01669958E+01 -6.90458046E-01 -3.97685491E-01 -3.89051936E-01 -3.80195382E-01
  1.17697698E-01  1.71331733E-01  1.77407316E-01  1.80239277E-01  5.27663681E-01
  5.33704528E-01  5.39961170E-01  8.86950354E-01  8.98330352E-01  9.06824574E-01
  9.48155052E-01  1.09802149E+00  1.65340232E+00  1.66324811E+00  2.22447732E+00
  2.24602332E+00  2.25676453E+00  4.17844114E+00
Total SCF Density                          R   N=         276
  2.05007534E+00 -5.20715862E-02  2.94017566E-01  8.76592480E-07 -2.40051342E-06
  3.97323618E-01  1.41566174E-06 -3.59762036E-06  6.63436920E-08  3.98550850E-01
 -4.33828943E-04  1.44314450E-03 -1.16574830E-06  3.55427344E-06  3.99283483E-01
 -1.72565662E-01  2.73566059E-01 -1.34856881E-06  8.04411574E-07  2.21468273E-03
  2.62087212E-01 -2.71689499E-07 -5.33436061E-07  1.88076559E-01 -2.55361383E-07
  5.57949587E-07 -3.97751665E-08  8.90276599E-02 -1.02088576E-07 -4.25959224E-07
 -5.15627095E-07  1.91390747E-01 -1.93776008E-06  1.62308419E-06 -3.81793503E-07
  9.19090203E-02  1.72207584E-04  8.49758338E-04  4.85509509E-07 -1.87223106E-06
  1.95955450E-01  1.19361437E-03  7.74632135E-07 -2.68719917E-06  9.61687629E-02
 -1.99037980E-02  1.79073672E-03 -7.93168139E-06 -6.78015810E-07  2.11284227E-02
  2.90289603E-03 -3.68675531E-06 -5.05468070E-07  1.03660385E-02  1.31582268E-03
 -1.91200951E-02  6.25671152E-05  3.13192388E-06  3.35766039E-06 -1.96785540E-02
  1.17790181E-03  1.43352570E-06  1.79780034E-06 -9.66137739E-03 -8.57137148E-04
  1.14899884E-03 -1.84374970E-02 -1.18304460E-03  5.44764080E-06 -2.16331463E-06
 -2.06368286E-03  2.88382418E-05  2.57585287E-06 -1.02023456E-06 -1.01710268E-03
  6.28270341E-05  2.75858920E-04  1.85758896E-04  4.10868840E-08 -2.28116195E-07
 -7.71432813E-07  4.58954382E-06 -3.03127370E-05 -2.77614176E-07 -3.65252162E-07
  2.20425251E-06 -1.48766166E-05 -1.60458655E-06  1.49405441E-06  1.57226394E-07
  2.35568079E-09  1.46221649E-07 -3.89337670E-07  2.16197323E-02 -2.93332309E-05
  7.56187818E-06 -3.01167891E-07  1.02338867E-02 -1.41161669E-05  3.76881417E-06
 -3.02359216E-08 -2.06308722E-07  2.57803959E-07 -4.28929221E-08  1.17640563E-03
 -3.54303557E-07  8.54951187E-07 -2.84400573E-05 -2.32648961E-02 -2.60378613E-06
  5.57461483E-07 -1.34456119E-05 -1.11721900E-02 -1.06653556E-06 -8.13307925E-08
 -7.63361025E-08  1.37111920E-07 -2.67671873E-07  1.64933698E-07  1.35806060E-03
 -5.45920229E-02  1.04198169E-01  2.14340307E-01 -1.43758008E-04  1.49027201E-01
  9.94688157E-02  1.01460467E-01 -7.02172769E-05  7.31809562E-02  8.83212362E-03
 -6.95805549E-03 -8.52183068E-04 -1.17732588E-05  1.16657414E-02 -7.60974297E-06
  2.08436591E-01 -1.13266175E-02  3.19127373E-02  1.74907444E-01 -1.22559896E-04
  1.31382056E-01  3.03214424E-02  8.27943770E-02 -6.01534273E-05  6.44925437E-02
  7.18592308E-03 -6.40686128E-03 -7.51034999E-04 -1.03279395E-05  9.51979761E-03
 -6.08194620E-06  1.54576439E-01  1.23604885E-01 -5.45945582E-02  1.04203616E-01
 -2.14383288E-01  1.31586799E-04  1.48964827E-01  9.94728600E-02 -1.01479541E-01
  6.25992278E-05  7.31492027E-02  8.83734309E-03 -6.95828458E-03 -8.57736018E-04
 -1.09328593E-05 -1.16625922E-02  7.00120478E-06 -2.28654963E-02 -3.41744063E-02
  2.08437687E-01 -1.13287103E-02  3.19171958E-02 -1.74941206E-01  1.09273603E-04
  1.31324215E-01  3.03247421E-02 -8.28094971E-02  5.16594932E-05  6.44632249E-02
  7.18981538E-03 -6.40670577E-03 -7.55530427E-04 -9.64154423E-06 -9.51667813E-03
  5.42386195E-06 -3.41741457E-02 -3.04225770E-02  1.54571920E-01  1.23596425E-01
 -5.29638471E-02  1.00608067E-01 -1.12469265E-04 -2.13564217E-01 -1.53147522E-01
  9.54137139E-02 -5.32942430E-05 -1.02555229E-01 -7.51163133E-02 -7.17581138E-03
  7.92179837E-03  7.09967748E-04  9.12684618E-06  6.57600929E-06  1.24676928E-02
 -2.08548339E-02 -3.94617738E-02 -2.08555699E-02 -3.94635267E-02  2.08591187E-01
 -9.05174443E-03  2.73944042E-02 -9.47171088E-05 -1.81192353E-01 -1.31714072E-01
  2.54580628E-02 -4.50128967E-05 -8.70102534E-02 -6.46268154E-02 -6.76601269E-03
  6.54244255E-03  6.09214337E-04  7.90178025E-06  5.64072574E-06  1.05777314E-02
 -3.92447724E-02 -4.03336491E-02 -3.92464957E-02 -4.03360100E-02  1.57272939E-01
  1.28473900E-01 -5.29605809E-02  1.00601123E-01  1.62239355E-04  2.13579854E-01
 -1.53120814E-01  9.54116794E-02  7.64341674E-05  1.02566458E-01 -7.51070828E-02
 -7.17536190E-03  7.92425772E-03  7.07536243E-04  1.40433871E-05 -9.91727083E-06
 -1.24663158E-02 -2.08533417E-02 -3.94650347E-02 -2.08553242E-02 -3.94601469E-02
 -2.03047335E-02 -3.69266133E-02  2.08588192E-01 -9.05091135E-03  2.73916695E-02
  1.31669523E-04  1.81212657E-01 -1.31698063E-01  2.54593435E-02  6.18884449E-05
  8.70226599E-02 -6.46222464E-02 -6.76595132E-03  6.54487126E-03  6.07185546E-04
  1.20736741E-05 -8.71675223E-06 -1.05772138E-02 -3.92484497E-02 -4.03412035E-02
 -3.92440146E-02 -4.03320418E-02 -3.69272523E-02 -3.62897658E-02  1.57278374E-01
  1.28484049E-01
Pure Switching                             I                1
Dipole_Data                                R   N=           3
  1.97045294E-05 -8.98384364E-07 -2.98009204E-02
Quadrupole_Data                            R   N=           6
 -8.08467454E+00 -1.53136389E-05 -8.26541083E+00 -2.24065412E-05  4.27707201E-05
 -8.40782526E+00
Octapole_Data                              R   N=          10
 -3.14519645E-04 -3.83580672E-05  1.30175000E-04  6.19242781E-05  6.80632805E-01
 -8.55546277E-04 -6.51536972E-01  1.95537978E-04 -8.71246326E-05 -9.56552731E-02
Hexadecapole_Data                          R   N=          15
 -1.51214549E+01 -9.88299198E-04 -5.52397956E+00  8.61457999E-04 -1.51349934E+01
 -9.50220456E-05  5.99144131E-06 -1.31906698E-04  1.89510022E-05 -4.84004645E+00
  3.41005940E-05 -4.78595291E+00  1.22535319E-04  1.58657343E-04 -1.55520777E+01
