Jobname.Temp
SP        R                             6-31G(d)            
Number of atoms                            I                5
Charge                                     I                0
Multiplicity                               I                1
Number of electrons                        I               10
Number of alpha electrons                  I                5
Number of beta electrons                   I                5
Atomic numbers                             I   N=           5
           6           1           1           1           1
Current cartesian coordinates              R   N=          15
 -1.65524288E-05 -1.24850460E-05  6.84093785E-02  1.88272639E+00 -3.31635151E-04
  9.19231998E-01 -1.88280192E+00  3.00926510E-04  9.19087126E-01 -2.65573463E-04
 -1.68689111E+00 -1.12443279E+00  4.40408978E-04  1.68699673E+00 -1.12434260E+00
Nuclear charges                            R   N=           5
  6.00000000E+00  1.00000000E+00  1.00000000E+00  1.00000000E+00  1.00000000E+00
Number of basis functions                  I               23
Number of contracted shells                I               12
Number of primitive shells                 I               27
Highest angular momentum                   I                2
Largest degree of contraction              I                6
Shell types                                I   N=          12
           0          -1          -1           2           0           0
           0           0           0           0           0           0
Number of primitives per shell             I   N=          12
           6           3           1           1           3           1
           3           1           3           1           3           1
Shell to atom map                          I   N=          12
           1           1           1           1           2           2
           3           3           4           4           5           5
Primitive exponents                        R   N=          27
  3.04752490E+03  4.57369510E+02  1.03948690E+02  2.92101550E+01  9.28666300E+00
  3.16392700E+00  7.86827240E+00  1.88128850E+00  5.44249300E-01  1.68714400E-01
  8.00000000E-01  1.87311370E+01  2.82539370E+00  6.40121700E-01  1.61277800E-01
  1.87311370E+01  2.82539370E+00  6.40121700E-01  1.61277800E-01  1.87311370E+01
  2.82539370E+00  6.40121700E-01  1.61277800E-01  1.87311370E+01  2.82539370E+00
  6.40121700E-01  1.61277800E-01
Contraction coefficients                   R   N=          27
  1.83470016E-03  1.40373012E-02  6.88426061E-02  2.32184421E-01  4.67941342E-01
  3.62312032E-01 -1.19332409E-01 -1.60854212E-01  1.14345648E+00  1.00000000E+00
  1.00000000E+00  3.34945995E-02  2.34726947E-01  8.13757318E-01  1.00000000E+00
  3.34945995E-02  2.34726947E-01  8.13757318E-01  1.00000000E+00  3.34945995E-02
  2.34726947E-01  8.13757318E-01  1.00000000E+00  3.34945995E-02  2.34726947E-01
  8.13757318E-01  1.00000000E+00
P(S=P) Contraction coefficients            R   N=          27
  0.00000000E+00  0.00000000E+00  0.00000000E+00  0.00000000E+00  0.00000000E+00
  0.00000000E+00  6.89990956E-02  3.16423980E-01  7.44308252E-01  1.00000000E+00
  0.00000000E+00  0.00000000E+00  0.00000000E+00  0.00000000E+00  0.00000000E+00
  0.00000000E+00  0.00000000E+00  0.00000000E+00  0.00000000E+00  0.00000000E+00
  0.00000000E+00  0.00000000E+00  0.00000000E+00  0.00000000E+00  0.00000000E+00
  0.00000000E+00  0.00000000E+00
Coordinates of each shell                  R   N=          36
 -1.65524288E-05 -1.24850460E-05  6.84093785E-02 -1.65524288E-05 -1.24850460E-05
  6.84093785E-02 -1.65524288E-05 -1.24850460E-05  6.84093785E-02 -1.65524288E-05
 -1.24850460E-05  6.84093785E-02  1.88272639E+00 -3.31635151E-04  9.19231998E-01
  1.88272639E+00 -3.31635151E-04  9.19231998E-01 -1.88280192E+00  3.00926510E-04
  9.19087126E-01 -1.88280192E+00  3.00926510E-04  9.19087126E-01 -2.65573463E-04
 -1.68689111E+00 -1.12443279E+00 -2.65573463E-04 -1.68689111E+00 -1.12443279E+00
  4.40408978E-04  1.68699673E+00 -1.12434260E+00  4.40408978E-04  1.68699673E+00
 -1.12434260E+00
Overlap Matrix                             R   N=         276
  1.00000000E+00  2.19058872E-01  1.00000000E+00 -8.70331731E-22 -7.74346819E-23
  1.00000000E+00  3.24378907E-22  2.36384650E-21  4.32458824E-42  1.00000000E+00
 -2.59427001E-18  7.62767392E-19 -2.92002871E-38  0.00000000E+00  1.00000000E+00
  1.84261053E-01  8.12273068E-01 -1.19841248E-21  1.00675119E-22  0.00000000E+00
  1.00000000E+00 -2.93980434E-25  1.82439027E-22  5.69754058E-01  0.00000000E+00
  0.00000000E+00  0.00000000E+00  1.00000000E+00  6.95924721E-23 -2.54960876E-23
  0.00000000E+00  5.69754058E-01  0.00000000E+00  0.00000000E+00  0.00000000E+00
  1.00000000E+00 -7.26780557E-19  0.00000000E+00  0.00000000E+00  0.00000000E+00
  5.69754058E-01  0.00000000E+00  0.00000000E+00  0.00000000E+00  1.00000000E+00
  7.91027073E-02  7.10235064E-01  1.84669273E-22  0.00000000E+00 -2.52135114E-19
  6.29936196E-01  0.00000000E+00  0.00000000E+00  0.00000000E+00  1.00000000E+00
  7.91027073E-02  7.10235064E-01  6.15564244E-23  0.00000000E+00 -2.52135114E-19
  6.29936196E-01  0.00000000E+00  0.00000000E+00  0.00000000E+00  3.33333333E-01
  1.00000000E+00  7.91027073E-02  7.10235064E-01  6.15564244E-23  0.00000000E+00
 -7.56405342E-19  6.29936196E-01  0.00000000E+00  0.00000000E+00  0.00000000E+00
  3.33333333E-01  3.33333333E-01  1.00000000E+00  9.18653478E-44  0.00000000E+00
  0.00000000E+00  1.06618855E-22  0.00000000E+00  0.00000000E+00  0.00000000E+00
  0.00000000E+00  0.00000000E+00  0.00000000E+00  0.00000000E+00  0.00000000E+00
  1.00000000E+00 -7.52560929E-40  7.90791733E-39 -4.36710828E-19  0.00000000E+00
  1.06618855E-22  0.00000000E+00  0.00000000E+00  0.00000000E+00  0.00000000E+00
  0.00000000E+00  0.00000000E+00  0.00000000E+00  0.00000000E+00  1.00000000E+00
 -3.96081753E-38  0.00000000E+00  0.00000000E+00 -4.36710828E-19  0.00000000E+00
  0.00000000E+00  0.00000000E+00  0.00000000E+00  0.00000000E+00  0.00000000E+00
  0.00000000E+00  0.00000000E+00  0.00000000E+00  0.00000000E+00  1.00000000E+00
  3.22654588E-02  2.71604305E-01  3.34662629E-01 -5.67297906E-05  1.51236012E-01
  3.75715315E-01  4.69080938E-01 -7.95154913E-05  2.11980437E-01  3.96316584E-01
  1.16515992E-01  1.73656563E-01 -8.21510712E-05  2.19006632E-01 -3.71245526E-05
  1.00000000E+00  9.18319546E-02  4.74640908E-01  2.42113586E-01 -4.10414903E-05
  1.09412555E-01  7.03030508E-01  5.31425253E-01 -9.00836863E-05  2.40154200E-01
  4.17227447E-01  3.50073500E-01  3.63787606E-01 -1.97167871E-05  5.25630046E-02
 -8.91013213E-06  6.58292049E-01  1.00000000E+00  3.22670405E-02  2.71611275E-01
 -3.34679992E-01  5.57113833E-05  1.51214699E-01  3.75719756E-01 -4.69097069E-01
  7.80866716E-05  2.11946856E-01  3.96342710E-01  1.16519661E-01  1.73642786E-01
 -8.06785928E-05 -2.18981982E-01  3.64521017E-05  7.24209656E-03  1.02525754E-01
  1.00000000E+00  9.18331960E-02  4.74645936E-01 -2.42121715E-01  4.03039799E-05
  1.09395133E-01  7.03035538E-01 -5.31441029E-01  8.84645498E-05  2.40115026E-01
  4.17235333E-01  3.50077578E-01  3.63787173E-01 -1.93629268E-05 -5.25558507E-02
  8.74853356E-06  1.02525754E-01  3.18734949E-01  6.58292049E-01  1.00000000E+00
  3.22688893E-02  2.71619422E-01 -4.42669775E-05 -2.99866308E-01 -2.12044407E-01
  3.75724947E-01 -6.20445957E-05 -4.20292618E-01 -2.97201442E-01  1.16523948E-01
  3.41153762E-01  2.28846170E-01  5.74354769E-05  4.06143382E-05  2.75123181E-01
  2.35703280E-02  1.64503944E-01  2.35716761E-02  1.64507686E-01  1.00000000E+00
  9.18346470E-02  4.74651812E-01 -3.20239256E-05 -2.16931376E-01 -1.53398644E-01
  7.03041419E-01 -7.02900629E-05 -4.76147748E-01 -3.36698270E-01  3.50082344E-01
  4.03992195E-01  3.77039025E-01  1.37841810E-05  9.74720535E-06  6.60279659E-02
  1.64503944E-01  4.26523565E-01  1.64507686E-01  4.26529539E-01  6.58292049E-01
  1.00000000E+00  3.22647783E-02  2.71601305E-01  8.12250949E-05  2.99866644E-01
 -2.12012199E-01  3.75713404E-01  1.13850270E-04  4.20312199E-01 -2.97169809E-01
  1.16514421E-01  3.41158452E-01  2.28809373E-01  1.05394418E-04 -7.45161317E-05
 -2.75098507E-01  2.35736867E-02  1.64513267E-01  2.35668975E-02  1.64494421E-01
  1.80244188E-02  1.47824615E-01  1.00000000E+00  9.18314205E-02  4.74638745E-01
  5.87632207E-05  2.16941941E-01 -1.53382642E-01  7.03028343E-01  1.28982071E-04
  4.76175752E-01 -3.36666549E-01  3.50071747E-01  4.03988310E-01  3.77023533E-01
  2.52955966E-05 -1.78845336E-05 -6.60260854E-02  1.64513267E-01  4.26538448E-01
  1.64494421E-01  4.26508362E-01  1.47824615E-01  3.99347926E-01  6.58292049E-01
  1.00000000E+00
Core Hamiltonian Matrix                    R   N=         276
 -1.98812393E+01 -4.08454889E+00 -6.71945104E+00 -1.16218690E-06 -8.49069053E-06
 -6.02595527E+00  9.52698575E-08  3.98298237E-08 -3.87694743E-11 -5.99175731E+00
  7.35633867E-03  5.20200703E-02  2.04434756E-06 -5.56579762E-06 -5.95754519E+00
 -3.51967449E+00 -5.37815133E+00 -8.45447007E-06 -1.11497897E-06  4.87649334E-02
 -5.44218443E+00 -1.95241821E-07 -6.11486755E-06 -3.09898386E+00 -3.52517864E-11
  1.40819156E-06 -1.12378957E-05 -3.80205519E+00  1.59999639E-08 -1.04103117E-06
 -3.52517864E-11 -3.06984377E+00 -3.65193720E-06 -4.96313566E-06 -6.20333467E-11
 -3.75556294E+00  1.23581668E-03  3.46539426E-02  1.40819156E-06 -3.65193720E-06
 -3.04069227E+00  5.56747094E-02  1.37756566E-06 -2.98662294E-06 -3.70905421E+00
 -1.50309034E+00 -4.44586880E+00 -2.04540720E-06 -3.25165160E-07 -3.64684020E-02
 -3.80294706E+00 -4.25474653E-07 -4.88806359E-07 -4.01796910E-02 -4.85102254E+00
 -1.50214056E+00 -4.41659256E+00 -8.78128363E-06 -4.67475563E-06  8.15407461E-02
 -3.77186698E+00 -7.74183465E-06 -6.27673606E-06  7.37646711E-02 -2.28461578E+00
 -4.76815244E+00 -1.50119037E+00 -4.38730410E+00 -9.26845426E-06  4.71775804E-06
  7.70561036E-02 -3.74077434E+00 -8.34732016E-06  3.76129702E-06  5.94999073E-02
 -2.29933772E+00 -2.30473222E+00 -4.67592267E+00 -1.79401027E-12 -5.69096972E-11
 -5.63202577E-07 -1.52096294E-05  3.88018034E-05 -6.27531151E-11 -8.46637449E-07
 -1.34092510E-05  3.74653740E-05  3.15193942E-05 -2.53045807E-05 -6.21496468E-06
 -3.65384735E+00  1.09071419E-07  3.11812516E-06 -6.31651252E-02  3.88018034E-05
 -1.60534337E-05  2.95784538E-06 -6.95932662E-02  3.74653740E-05 -1.44579826E-05
  1.06101292E-06  5.95641314E-06  1.15329453E-06 -2.94081652E-06 -3.69801316E+00
 -3.02797938E-07 -8.53649901E-06  3.88018034E-05  1.41232715E-01  8.17139662E-06
 -7.91099577E-06  3.74653740E-05  1.27764158E-01  6.51475754E-06 -1.69788121E-06
 -7.57934965E-06 -1.30488610E-05  1.03168102E-05 -1.07646346E-05 -3.71419667E+00
 -6.19772354E-01 -1.73619986E+00 -1.88325930E+00  3.17972982E-04 -8.41720984E-01
 -1.98473849E+00 -2.07619998E+00  3.50451240E-04 -9.29304349E-01 -2.14255237E+00
 -8.08482209E-01 -1.07299514E+00  3.89701210E-04 -1.03514344E+00  1.74957522E-04
 -4.04064063E+00 -1.75552001E+00 -3.08633960E+00 -1.31960215E+00  2.20784952E-04
 -5.62813599E-01 -3.50877954E+00 -1.92779494E+00  3.20484318E-04 -8.26622257E-01
 -2.45455188E+00 -2.09567251E+00 -2.14616517E+00  1.00256095E-04 -2.71439418E-01
  4.38792991E-05 -2.95902575E+00 -3.89584936E+00 -6.19802491E-01 -1.73624463E+00
  1.88335457E+00 -3.13207683E-04 -8.41601649E-01 -1.98476755E+00  2.07627158E+00
 -3.45416880E-04 -9.29157653E-01 -2.14267750E+00 -8.08505823E-01 -1.07293631E+00
  3.83945399E-04  1.03502312E+00 -1.72958825E-04 -6.99406781E-02 -6.10302127E-01
 -4.04065971E+00 -1.75554360E+00 -3.08636984E+00  1.31963687E+00 -2.19306078E-04
 -5.62720188E-01 -3.50880249E+00  1.92783710E+00 -3.21803801E-04 -8.26482033E-01
 -2.45459258E+00 -2.09569331E+00 -2.14616395E+00  9.95761102E-05  2.71404583E-01
 -4.96755301E-05 -6.10299422E-01 -1.64514756E+00 -2.95903714E+00 -3.89585674E+00
 -6.20346017E-01 -1.74589968E+00  2.49258158E-04  1.69324526E+00  1.20107270E+00
 -1.99738421E+00  2.75265139E-04  1.86908844E+00  1.32476152E+00 -8.13752138E-01
 -1.88517219E+00 -1.35023760E+00 -2.73469270E-04 -1.94140934E-04 -1.32012451E+00
 -1.82159800E-01 -9.10981006E-01 -1.82169367E-01 -9.10999663E-01 -4.07152734E+00
 -1.75603853E+00 -3.09830254E+00  1.70323209E-04  1.17826037E+00  8.53354020E-01
 -3.52854106E+00  2.49467041E-04  1.72318980E+00  1.24146621E+00 -2.11475070E+00
 -2.38096184E+00 -2.23243779E+00 -6.99866906E-05 -5.01697236E-05 -3.54286439E-01
 -9.07169902E-01 -2.05264647E+00 -9.07191871E-01 -2.05267136E+00 -2.97935262E+00
 -3.92537579E+00 -6.20267252E-01 -1.74577410E+00 -4.61096597E-04 -1.69324054E+00
  1.20088524E+00 -1.99729662E+00 -5.08846647E-04 -1.86916014E+00  1.32460906E+00
 -8.13686194E-01 -1.88517649E+00 -1.35004140E+00 -5.06162601E-04  3.58733419E-04
  1.32000776E+00 -1.82178433E-01 -9.11008297E-01 -1.82135853E-01 -9.10920927E-01
 -1.46519048E-01 -8.33881191E-01 -4.07144856E+00 -1.75597687E+00 -3.09821454E+00
 -3.26433267E-04 -1.17831753E+00  8.53264706E-01 -3.52846503E+00 -4.77741807E-04
 -1.72329555E+00  1.24134938E+00 -2.11468825E+00 -2.38093244E+00 -2.23234775E+00
 -1.34014477E-04  9.65022292E-05  3.54267301E-01 -9.07209596E-01 -2.05268581E+00
 -9.07126038E-01 -2.05257848E+00 -8.33893043E-01 -1.96271738E+00 -2.97930381E+00
 -3.92532968E+00
Number of independent functions            I               23
Alpha MO coefficients                      R   N=         529
 -9.92794032E-01 -4.97318017E-02 -3.11202224E-08  2.83386858E-09  1.65791430E-04
  1.43680985E-02  1.87413818E-07  3.16447531E-08 -7.78223503E-04  9.26267822E-03
  9.41921642E-03  9.40500678E-03  2.72544127E-08  1.56270785E-08 -2.89389764E-08
  2.23097565E-04 -2.35428976E-03  2.23148271E-04 -2.35422914E-03  1.10596675E-04
 -2.71446969E-03  1.10552062E-04 -2.71434663E-03 -1.97758079E-01  3.78902382E-01
  4.18230052E-06 -2.41021210E-06 -2.50873214E-02  3.58496264E-01  3.15487955E-06
  5.41181639E-07 -1.13620139E-02  7.67380378E-03  2.23848485E-03 -4.73058141E-03
  3.64324901E-07 -3.09774529E-07  1.02427351E-06  1.32945557E-01  4.03016488E-02
  1.32945873E-01  4.03028314E-02  1.37433197E-01  3.76779144E-02  1.37426032E-01
  3.76766021E-02 -3.11351964E-06  6.95776677E-06 -4.45033878E-01 -4.00822392E-06
  1.02075285E-05  5.75787081E-06 -2.03483595E-01 -1.16161253E-06  4.69770884E-06
  2.74982261E-06 -1.72992746E-06 -1.79765050E-06  2.20256707E-07 -1.87655866E-02
  8.57226621E-06 -2.42328752E-01 -1.81167617E-01  2.42352560E-01  1.81184151E-01
  3.41518547E-05  2.74746285E-05 -6.04145227E-05 -4.59174212E-05  1.07613994E-06
 -1.55853806E-06  4.52148390E-06 -4.46810660E-01 -6.03516675E-05 -6.60063840E-06
  2.63300731E-06 -2.13106146E-01 -2.73177439E-05 -3.27330252E-06  6.68289744E-07
  2.36218361E-06 -2.60134839E-06  9.39703411E-06  2.74468684E-02  2.82550386E-05
  2.27855810E-05 -6.63523630E-05 -5.64943144E-05  2.38012696E-01  2.05101058E-01
 -2.37980430E-01 -2.05076848E-01  1.24632939E-02 -2.77598546E-02 -9.41297905E-06
  5.62014313E-05 -4.47698699E-01 -2.92193265E-02 -5.19547066E-06  3.12028411E-05
 -2.35979488E-01 -2.75739743E-02  2.14277482E-02  8.54926465E-03  1.05510807E-05
 -3.65152084E-06 -2.09289817E-06 -1.64951464E-01 -1.61723456E-01 -1.64917985E-01
 -1.61689944E-01  1.69498180E-01  1.58665687E-01  1.69544865E-01  1.58712718E-01
 -1.60328508E-01  1.96167729E-01  9.02880751E-06  1.16865137E-05  5.31674160E-02
  2.51221760E+00  4.05167824E-05  3.32631411E-05  6.78196141E-02 -1.76356485E-02
 -6.02096511E-03 -1.30610304E-02  2.69584236E-06 -4.61421311E-07  6.67231283E-07
 -5.78928597E-02 -1.10286737E+00 -5.78917558E-02 -1.10282191E+00  5.92332255E-03
 -7.94141595E-01  5.91817730E-03 -7.94173887E-01  2.77470517E-02 -1.80774680E-02
  2.69417898E-07 -7.02068296E-05  3.54310224E-01 -6.18519878E-01 -2.53639333E-05
 -2.02946104E-04  1.16651735E+00 -2.38329905E-02  2.43161988E-02  6.24777839E-03
  1.00763143E-05 -2.49407361E-06 -2.25753970E-06 -1.18866675E-01 -6.87957914E-01
 -1.18853507E-01 -6.87855776E-01  8.53719697E-02  1.19540530E+00  8.54087153E-02
  1.19577049E+00 -7.63968257E-06  6.05387707E-06 -1.64880774E-05 -3.92282619E-01
 -5.87009105E-05  2.01609287E-04 -4.64193127E-05 -1.34614717E+00 -2.33671459E-04
  2.78664649E-06 -2.20168667E-06 -2.59000311E-06  1.70086276E-06 -6.71802940E-06
 -1.59931254E-02 -3.09190660E-07 -1.52759588E-04  3.04261489E-05  3.24045821E-04
 -1.01113531E-01 -1.52584965E+00  1.01097386E-01  1.52539323E+00  2.37648740E-06
 -7.15391718E-06  4.02730111E-01 -1.39738211E-05  4.04817559E-06 -3.03097062E-05
  1.57062003E+00 -6.38975922E-05 -1.52230847E-06  1.85470705E-06 -6.75304337E-07
 -9.90048951E-07 -3.83379987E-07 -1.38670604E-02  3.37358603E-06 -5.66705683E-02
 -1.72114739E+00  5.66794034E-02  1.72128145E+00  9.36823267E-06  1.91308314E-04
 -7.53691606E-06 -2.99756694E-04 -1.47994173E-03  7.40860605E-02 -3.11105994E-05
  1.01730161E-04  7.80215933E-01 -5.16512204E-03  8.22028241E-05 -2.35250958E-04
 -1.11579890E+00  9.99046537E-02 -6.57491825E-02 -1.06999620E-02 -3.52716029E-05
  6.02792371E-06 -1.81404267E-05  3.09233089E-01 -1.59871440E-01  3.09228114E-01
 -1.59809313E-01 -2.48032565E-01  4.95683947E-02 -2.47889069E-01  4.96611961E-02
 -1.36963497E-06 -2.89720714E-05  4.27831035E-05  7.60058536E-01 -1.21005909E-04
  6.65299011E-05 -9.40408564E-05 -1.46637146E+00  1.28918333E-04 -1.81503163E-05
  1.84733750E-05 -3.87012584E-06  9.04352698E-06 -3.24614037E-05 -1.00232370E-01
 -1.12680478E-04  1.33401770E-05 -5.14845386E-06  4.86725181E-05 -4.06296426E-01
 -1.97991971E-01  4.06371253E-01  1.97925407E-01  1.98073011E-06  2.20262637E-05
 -7.80657536E-01  4.38681141E-05 -3.82690916E-05 -4.85301508E-05  1.98871404E+00
 -1.01821672E-04  6.17996961E-05  1.14091621E-05  2.87299963E-07 -6.20123019E-06
  1.72488585E-07 -1.10897987E-01  3.52128902E-05 -4.01917166E-01 -6.53609525E-01
  4.01949133E-01  6.53639201E-01  6.49300865E-05  6.66199676E-05 -3.91209730E-05
 -1.14709635E-04  3.01479575E-02 -8.59515145E-02 -6.14851443E-07  1.29652844E-04
 -7.87158338E-01 -4.78672322E-02 -1.93652130E-05 -1.89912404E-04  1.18888511E+00
  1.93764732E-01 -1.39036768E-01 -5.00381581E-02 -6.71135499E-05  2.36593492E-05
  2.24364258E-05  6.30105700E-01 -1.05516858E+00  6.30008533E-01 -1.05502654E+00
 -3.16187792E-01  9.37902223E-01 -3.16380464E-01  9.38258202E-01 -1.82147139E-05
  1.82041735E-04  1.89264072E-07  8.51127020E-01  1.04618416E-04 -2.73572426E-04
  3.89654727E-06 -1.22277616E+00 -1.71867108E-04 -2.24592129E-05  2.17216593E-06
  3.40336156E-05 -1.80429499E-05  7.35880040E-05  2.01127618E-01 -2.43857160E-05
 -4.26952286E-05 -2.98294802E-04  4.90222285E-04  7.27381113E-01 -1.39398003E+00
 -7.27543002E-01  1.39400083E+00 -2.13241734E-05  4.20116638E-05 -8.68691546E-01
  2.49882733E-06 -2.24576573E-05  5.79398363E-05  1.19899648E+00 -5.38449463E-06
 -1.22807821E-05 -3.00395428E-05 -3.88748296E-06  2.80640188E-05  3.66629872E-07
  2.01187246E-01 -7.77151712E-05  7.65960342E-01 -1.34695905E+00 -7.66208211E-01
  1.34711183E+00 -2.55722072E-04  2.54343559E-04  2.35625635E-05 -2.33546780E-04
  9.38557218E-02 -8.39795046E-01 -1.38655626E-04  1.52351435E-04  2.16481457E-01
  1.22941385E+00  1.33504108E-04 -2.15278740E-04 -1.54277368E-01 -3.09038200E-02
  5.00796408E-02 -9.05925798E-02  3.64422281E-05  3.36684680E-05  4.50515063E-05
  4.80772084E-01 -3.82185026E-01  4.80510762E-01 -3.81838540E-01  7.62676672E-01
 -7.20989663E-01  7.62431098E-01 -7.20508770E-01  9.70073721E-02  2.00564373E+00
 -1.79044877E-05  2.40285156E-06 -2.88130786E-02 -5.29585579E+00 -8.39008164E-05
 -8.13941252E-06  4.23427053E-01  1.39059679E-01  2.01282482E-01  5.18233424E-03
  4.38981902E-05  2.19242093E-05  1.05757336E-06  2.18736075E-01  9.33933326E-01
  2.18623413E-01  9.33991213E-01  3.52540706E-01  1.06123592E+00  3.52586940E-01
  1.06112635E+00  4.46011982E-06  4.16853252E-05 -1.46104980E-06 -9.55681752E-07
 -3.69880524E-07 -1.33133290E-04 -2.71782893E-06 -2.27626433E-06  1.50719320E-05
 -2.81358596E-04  3.97933155E-04 -1.12951075E-04 -9.99999913E-01 -7.70762971E-06
 -8.17695801E-05  2.29302077E-05  1.75654956E-05  1.60693923E-05  1.76001342E-05
  2.10307608E-05  2.49314427E-05  2.87437586E-05  2.39051068E-05 -3.17037393E-02
 -2.88231729E-01 -1.31368678E-06 -3.34935670E-06 -2.68643844E-03  9.29775310E-01
  3.61005363E-05  1.02412068E-05 -1.08692838E-01  3.13096546E-01  6.49660448E-01
 -9.86051919E-01  1.86872773E-04  5.95073948E-05  5.99563923E-05 -1.40865637E-01
 -1.21419138E-01 -1.40846074E-01 -1.21401597E-01 -1.79395124E-01 -1.69844224E-01
 -1.79404716E-01 -1.69834019E-01  1.15226476E-06 -1.32983724E-05  1.11748957E-01
 -2.18649877E-05  5.52477544E-06  6.27257587E-06  6.81996729E-01 -8.75059205E-05
  1.75425878E-05 -6.25766839E-05 -8.82623369E-06  7.52295040E-05 -7.85120134E-06
  1.08700872E+00 -2.11233097E-04 -6.12200189E-01 -1.29531471E-01  6.12204244E-01
  1.29544921E-01  2.01898132E-05  4.83144085E-06  1.06779016E-05 -3.87536089E-05
 -4.72769531E-06  1.69804625E-05 -2.50783518E-05 -1.47159934E-01  9.32208797E-06
  4.29394786E-05 -1.19307537E-04 -4.29278354E-01  1.87769722E-05  1.89772008E-04
 -2.19046811E-04  1.62841488E-05 -9.37241593E-05  2.24197206E-04  1.13042376E+00
 -1.09044702E-04  5.82312338E-05 -1.05550374E-04  6.68787955E-06 -6.71206115E-01
  7.49150505E-02  6.71315330E-01 -7.49811553E-02 -9.31766382E-03  1.73213536E-02
 -1.68059411E-05  3.59773547E-05  1.54903554E-01  5.23770196E-02 -4.61540392E-05
  7.95726908E-05  2.41742791E-01  1.08908986E+00 -8.82207369E-01 -2.43545808E-01
 -4.19675417E-04  4.84018602E-05 -2.33021736E-04 -5.56707917E-01  1.78570608E-01
 -5.56746014E-01  1.78541267E-01  4.41019005E-01 -1.45684115E-01  4.40748059E-01
 -1.45660212E-01 -4.86279827E-01  2.94826620E+00 -2.70245050E-06  2.61016550E-06
  2.31241383E-02  2.38975096E+00  2.86505815E-05  5.06749972E-06 -1.24397957E-01
 -1.89568211E+00 -1.85765210E+00 -1.87655524E+00  9.19878915E-06  3.89628112E-06
 -7.00141890E-06  1.43088047E-01 -4.59620803E-01  1.43103243E-01 -4.59618689E-01
  1.17081817E-01 -5.03796558E-01  1.17059643E-01 -5.03767413E-01
Alpha Orbital Energies                     R   N=          23
 -1.01673516E+01 -6.92729813E-01 -4.20020674E-01 -3.89386721E-01 -3.53732524E-01
  1.13623652E-01  1.50795943E-01  1.79799650E-01  1.90738182E-01  5.17562114E-01
  5.34923936E-01  5.76669712E-01  8.50538421E-01  8.99875382E-01  9.33671423E-01
  9.55989594E-01  1.08254496E+00  1.64453205E+00  1.70877738E+00  2.11117299E+00
  2.25190739E+00  2.31760654E+00  4.17087790E+00
Total SCF Density                          R   N=         276
  2.04980716E+00 -5.18071009E-02  2.93621754E-01  9.44244237E-07 -2.49782951E-06
  3.96110306E-01  1.38692421E-06 -3.55435214E-06 -4.73981747E-07  3.99279538E-01
 -1.56635362E-03  5.82832004E-03 -8.67436545E-07  3.72977204E-06  4.02127061E-01
 -1.71048528E-01  2.71863323E-01 -1.57708908E-06  8.86066466E-07  8.18025207E-03
  2.59159566E-01 -4.82331825E-07 -1.70998085E-07  1.81114187E-01 -7.22295035E-07
  3.39331092E-07  2.27727668E-07  8.28111473E-02  4.22439936E-08 -6.61158226E-07
 -8.93781056E-07  1.90436199E-01 -2.24348707E-06  1.37874038E-06 -6.49802694E-07
  9.08284607E-02  1.56927890E-04  4.56872933E-03  1.66023480E-07 -2.05832396E-06
  2.11865250E-01  5.62148156E-03  4.68108519E-07 -3.09566071E-06  1.11632041E-01
 -2.21143018E-02  6.42484479E-03 -1.86483976E-06 -2.11261254E-07  2.43077063E-02
  7.37962011E-03 -7.80693509E-07 -3.16765221E-07  1.28249883E-02  1.81001710E-03
 -1.90539200E-02 -4.30197092E-04  1.15449858E-06  1.80061908E-06 -1.92955420E-02
  6.23440605E-04  4.99027646E-07  1.05540295E-06 -1.01785461E-02 -9.72846640E-04
  1.10576170E-03 -1.65903438E-02 -4.99496571E-03  1.39894921E-06 -1.12706469E-06
 -7.41451588E-03 -3.62113496E-03  6.16438732E-07 -4.77789788E-07 -3.94204287E-03
 -3.69846437E-04  5.22379909E-04  3.67844976E-04  6.47830479E-08 -3.12405437E-07
 -1.96262506E-07  2.32580283E-06 -9.46536261E-06 -3.54552649E-07 -8.97582788E-08
  1.10938499E-06 -4.98785443E-06 -5.75755804E-07  4.54312066E-07  1.77460600E-07
  2.36548614E-10  1.17346207E-07 -2.94734006E-07  1.67026437E-02 -8.24736563E-06
  2.90087549E-06 -2.24490701E-07  7.63697816E-03 -3.96176297E-06  1.55355910E-06
  9.36434951E-08 -9.26414324E-08  8.30146411E-09 -8.39266241E-09  7.04294686E-04
 -3.40804682E-07  8.09840124E-07 -7.38164864E-06 -2.45271071E-02 -1.49018012E-06
  4.93636014E-07 -3.34406729E-06 -1.16981928E-02 -5.34961002E-07 -4.90335791E-08
 -4.89964508E-08  8.36176235E-08 -1.42837377E-07  1.94125757E-07  1.50666132E-03
 -5.71352638E-02  1.09879271E-01  2.15693226E-01 -4.24885586E-05  1.41021739E-01
  1.04964132E-01  9.86224044E-02 -2.16296597E-05  7.48266401E-02  1.11399311E-02
 -6.46884237E-03 -4.07317916E-03 -3.49084559E-06  9.09600518E-03 -1.64080294E-06
  2.07213562E-01 -1.52953894E-02  3.97512657E-02  1.61254836E-01 -3.72818240E-05
  1.42780159E-01  3.82771421E-02  7.37312101E-02 -1.93395921E-05  7.54129819E-02
  9.49264015E-03 -6.79403400E-03 -3.19016647E-03 -3.46340234E-06  6.80058968E-03
 -1.09561086E-06  1.51872088E-01  1.21211895E-01 -5.71376733E-02  1.09884392E-01
 -2.15705983E-01  3.81729717E-05  1.41001653E-01  1.04967987E-01 -9.86269883E-02
  1.75692436E-05  7.48153911E-02  1.11407568E-02 -6.46908230E-03 -4.07435178E-03
 -3.27613805E-06 -9.09465512E-03  1.47533823E-06 -2.77018382E-02 -2.37558364E-02
  2.07214729E-01 -1.52973987E-02  3.97553379E-02 -1.61262790E-01  3.06633679E-05
  1.42757500E-01  3.82802071E-02 -7.37340715E-02  1.36107417E-05  7.54005476E-02
  9.49280465E-03 -6.79384520E-03 -3.19090666E-03 -3.30266102E-06 -6.79889902E-03
  7.64633199E-07 -2.37551609E-02 -1.00916648E-02  1.51867192E-01  1.21202397E-01
 -5.03511261E-02  9.47253000E-02 -3.02865222E-05 -2.12674831E-01 -1.58692583E-01
  8.86333666E-02 -1.35393399E-05 -1.01433210E-01 -8.31323992E-02 -7.23771529E-03
  7.88161438E-03  1.60109641E-03  2.43863183E-06  1.86847225E-06  1.30649789E-02
 -1.93787326E-02 -4.37481427E-02 -1.93792265E-02 -4.37494466E-02  2.08535147E-01
 -5.55696988E-03  2.00127822E-02 -2.52712626E-05 -1.83265026E-01 -1.43984975E-01
  1.76618633E-02 -1.15131719E-05 -8.74066500E-02 -7.57468699E-02 -8.22345039E-03
  6.91751735E-03  2.30638268E-03  2.30842848E-06  1.64135796E-06  1.12581772E-02
 -4.23289888E-02 -4.82707894E-02 -4.23305167E-02 -4.82726762E-02  1.61776196E-01
  1.37336478E-01 -5.03480638E-02  9.47187651E-02  4.95786318E-05  2.12682782E-01
 -1.58676573E-01  8.86317824E-02  2.24389560E-05  1.01440914E-01 -8.31282645E-02
 -7.23728505E-03  7.88294630E-03  1.59971318E-03  4.91601801E-06 -3.52852445E-06
 -1.30640643E-02 -1.93771054E-02 -4.37512470E-02 -1.93792003E-02 -4.37456070E-02
 -1.80358174E-02 -3.34629223E-02  2.08532153E-01 -5.55640522E-03  2.00104419E-02
  3.63425125E-05  1.83278702E-01 -1.43977512E-01  1.76635915E-02  1.61944846E-05
  8.74162187E-02 -7.57466274E-02 -8.22337704E-03  6.91898134E-03  2.30526400E-03
  4.44341893E-06 -3.31340651E-06 -1.12580223E-02 -4.23324625E-02 -4.82782075E-02
 -4.23275190E-02 -4.82682409E-02 -3.34633252E-02 -3.09045473E-02  1.61781303E-01
  1.37346273E-01
Pure Switching                             I                1
Dipole_Data                                R   N=           3
  2.02214304E-05 -5.40344270E-07 -1.26541243E-01
Quadrupole_Data                            R   N=           6
 -7.64170133E+00 -1.23645499E-05 -8.31304294E+00 -2.13787317E-05  4.20162702E-05
 -8.85249081E+00
Octapole_Data                              R   N=          10
 -1.11950727E-04 -2.03202966E-05  6.12921418E-05  4.92156844E-06  5.81161854E-01
 -2.22268026E-04 -5.96057285E-01  4.82797524E-05 -4.79943175E-05 -3.34510631E-01
Hexadecapole_Data                          R   N=          15
 -1.51700737E+01 -3.87648704E-04 -5.67120104E+00  2.56266788E-04 -1.52995161E+01
 -1.70876314E-05  2.34707617E-05 -6.17238905E-05  3.83839344E-05 -5.03278154E+00
  4.54177519E-05 -4.74306893E+00 -1.77547613E-05  1.17125444E-04 -1.49494460E+01
