Jobname.Temp
SP        R                             6-31G(d)            
Number of atoms                            I                5
Charge                                     I                0
Multiplicity                               I                1
Number of electrons                        I               10
Number of alpha electrons                  I                5
Number of beta electrons                   I                5
Atomic numbers                             I   N=           5
           6           1           1           1           1
Current cartesian coordinates              R   N=          15
 -1.58413103E-02 -1.28898226E-05  1.59503183E-05  1.25594870E+00  1.01667078E-03
 -1.62822523E+00  1.25637594E+00 -9.42120241E-04  1.62789674E+00 -1.20861139E+00
 -1.68694230E+00 -8.28815996E-04 -1.20866538E+00  1.68694509E+00  1.06161130E-03
Nuclear charges                            R   N=           5
  6.00000000E+00  1.00000000E+00  1.00000000E+00  1.00000000E+00  1.00000000E+00
Number of basis functions                  I               23
Number of contracted shells                I               12
Number of primitive shells                 I               27
Highest angular momentum                   I                2
Largest degree of contraction              I                6
Shell types                                I   N=          12
           0          -1          -1           2           0           0
           0           0           0           0           0           0
Number of primitives per shell             I   N=          12
           6           3           1           1           3           1
           3           1           3           1           3           1
Shell to atom map                          I   N=          12
           1           1           1           1           2           2
           3           3           4           4           5           5
Primitive exponents                        R   N=          27
  3.04752490E+03  4.57369510E+02  1.03948690E+02  2.92101550E+01  9.28666300E+00
  3.16392700E+00  7.86827240E+00  1.88128850E+00  5.44249300E-01  1.68714400E-01
  8.00000000E-01  1.87311370E+01  2.82539370E+00  6.40121700E-01  1.61277800E-01
  1.87311370E+01  2.82539370E+00  6.40121700E-01  1.61277800E-01  1.87311370E+01
  2.82539370E+00  6.40121700E-01  1.61277800E-01  1.87311370E+01  2.82539370E+00
  6.40121700E-01  1.61277800E-01
Contraction coefficients                   R   N=          27
  1.83470016E-03  1.40373012E-02  6.88426061E-02  2.32184421E-01  4.67941342E-01
  3.62312032E-01 -1.19332409E-01 -1.60854212E-01  1.14345648E+00  1.00000000E+00
  1.00000000E+00  3.34945995E-02  2.34726947E-01  8.13757318E-01  1.00000000E+00
  3.34945995E-02  2.34726947E-01  8.13757318E-01  1.00000000E+00  3.34945995E-02
  2.34726947E-01  8.13757318E-01  1.00000000E+00  3.34945995E-02  2.34726947E-01
  8.13757318E-01  1.00000000E+00
P(S=P) Contraction coefficients            R   N=          27
  0.00000000E+00  0.00000000E+00  0.00000000E+00  0.00000000E+00  0.00000000E+00
  0.00000000E+00  6.89990956E-02  3.16423980E-01  7.44308252E-01  1.00000000E+00
  0.00000000E+00  0.00000000E+00  0.00000000E+00  0.00000000E+00  0.00000000E+00
  0.00000000E+00  0.00000000E+00  0.00000000E+00  0.00000000E+00  0.00000000E+00
  0.00000000E+00  0.00000000E+00  0.00000000E+00  0.00000000E+00  0.00000000E+00
  0.00000000E+00  0.00000000E+00
Coordinates of each shell                  R   N=          36
 -1.58413103E-02 -1.28898226E-05  1.59503183E-05 -1.58413103E-02 -1.28898226E-05
  1.59503183E-05 -1.58413103E-02 -1.28898226E-05  1.59503183E-05 -1.58413103E-02
 -1.28898226E-05  1.59503183E-05  1.25594870E+00  1.01667078E-03 -1.62822523E+00
  1.25594870E+00  1.01667078E-03 -1.62822523E+00  1.25637594E+00 -9.42120241E-04
  1.62789674E+00  1.25637594E+00 -9.42120241E-04  1.62789674E+00 -1.20861139E+00
 -1.68694230E+00 -8.28815996E-04 -1.20861139E+00 -1.68694230E+00 -8.28815996E-04
 -1.20866538E+00  1.68694509E+00  1.06161130E-03 -1.20866538E+00  1.68694509E+00
  1.06161130E-03
Overlap Matrix                             R   N=         276
  1.00000000E+00  2.19058872E-01  1.00000000E+00  1.29965769E-18 -1.67289501E-18
  1.00000000E+00  2.13382875E-22 -6.34705224E-22  1.29682685E-38  1.00000000E+00
 -1.01346076E-21  1.86222508E-22  0.00000000E+00 -1.68394962E-42  1.00000000E+00
  1.84261053E-01  8.12273068E-01  0.00000000E+00  0.00000000E+00 -1.39976272E-21
  1.00000000E+00  1.81695139E-19  0.00000000E+00  5.69754058E-01  0.00000000E+00
  0.00000000E+00  0.00000000E+00  1.00000000E+00  2.15979114E-22  0.00000000E+00
  0.00000000E+00  5.69754058E-01  0.00000000E+00  1.39167034E-21  0.00000000E+00
  1.00000000E+00 -4.69925232E-22  2.33431202E-22  0.00000000E+00  0.00000000E+00
  5.69754058E-01  0.00000000E+00  0.00000000E+00  0.00000000E+00  1.00000000E+00
  7.91027073E-02  7.10235064E-01  0.00000000E+00 -1.68707350E-21  8.86935229E-22
  6.29936196E-01  0.00000000E+00  8.76663519E-22  0.00000000E+00  1.00000000E+00
  7.91027073E-02  7.10235064E-01  0.00000000E+00 -5.06122051E-21  8.86935229E-22
  6.29936196E-01  0.00000000E+00  2.62999056E-21  0.00000000E+00  3.33333333E-01
  1.00000000E+00  7.91027073E-02  7.10235064E-01  0.00000000E+00 -1.68707350E-21
  2.66080569E-21  6.29936196E-01  0.00000000E+00  8.76663519E-22  0.00000000E+00
  3.33333333E-01  3.33333333E-01  1.00000000E+00  4.99487191E-39  0.00000000E+00
 -2.92209702E-21  0.00000000E+00  0.00000000E+00  0.00000000E+00  1.51842576E-21
  0.00000000E+00  0.00000000E+00  0.00000000E+00  0.00000000E+00  0.00000000E+00
  1.00000000E+00 -9.80160360E-39  0.00000000E+00  1.53621688E-21  0.00000000E+00
  0.00000000E+00  0.00000000E+00  0.00000000E+00  0.00000000E+00  0.00000000E+00
  0.00000000E+00  0.00000000E+00  0.00000000E+00  0.00000000E+00  1.00000000E+00
 -4.78593926E-42  2.58619772E-42  0.00000000E+00  1.53621688E-21 -2.92209702E-21
  0.00000000E+00  0.00000000E+00  0.00000000E+00  1.51842576E-21  0.00000000E+00
  0.00000000E+00  0.00000000E+00  0.00000000E+00  0.00000000E+00  1.00000000E+00
  3.22654588E-02  2.71604305E-01  2.26064099E-01  1.83007171E-04 -2.89424255E-01
  3.75715315E-01  3.16863463E-01  2.56512583E-04 -4.05672428E-01  2.44188495E-01
  1.16516067E-01  3.25784576E-01  1.79017108E-04 -2.83114005E-01 -2.29191160E-04
  1.00000000E+00  9.18319546E-02  4.74640908E-01  1.63547361E-01  1.32397581E-04
 -2.09385627E-01  7.03030507E-01  3.58976953E-01  2.90604996E-04 -4.59589284E-01
  3.80715724E-01  3.50073518E-01  4.00299310E-01  4.29652607E-05 -6.79491878E-02
 -5.50073570E-05  6.58292049E-01  1.00000000E+00  3.22670405E-02  2.71611275E-01
  2.26146680E-01 -1.65178058E-04  2.89368687E-01  3.75719756E-01  3.16973669E-01
 -2.31518300E-04  4.05587446E-01  2.44282456E-01  1.16519722E-01  3.25702979E-01
 -1.61631943E-04  2.83156394E-01 -2.06818084E-04  2.32954586E-02  1.63738166E-01
  1.00000000E+00  9.18331960E-02  4.74645936E-01  1.63604110E-01 -1.19496820E-04
  2.09341593E-01  7.03035538E-01  3.59100117E-01 -2.62287555E-04  4.59490846E-01
  3.80740751E-01  3.50077592E-01  4.00281741E-01 -3.87917956E-05  6.79577610E-02
 -4.96365056E-05  1.63738166E-01  4.25299958E-01  6.58292049E-01  1.00000000E+00
  3.22688893E-02  2.71619422E-01 -2.12031592E-01 -2.99875335E-01 -1.50169047E-04
  3.75724947E-01 -2.97183480E-01 -4.20305270E-01 -2.10476936E-04  2.28832594E-01
  3.41167287E-01  1.16523999E-01  2.75114835E-01  1.37769692E-04  1.94847061E-04
  1.69441221E-02  1.44219884E-01  1.69450933E-02  1.44223187E-01  1.00000000E+00
  9.18346470E-02  4.74651812E-01 -1.53389373E-01 -2.16937906E-01 -1.08636339E-04
  7.03041419E-01 -3.36677921E-01 -4.76162082E-01 -2.38448441E-04  3.77035767E-01
  4.03995441E-01  3.50082356E-01  6.60259630E-02  3.30639261E-05  4.67621633E-05
  1.44219884E-01  3.93321621E-01  1.44223187E-01  3.93327170E-01  6.58292049E-01
  1.00000000E+00  3.22647783E-02  2.71601305E-01 -2.12025014E-01  2.99857536E-01
  1.85866708E-04  3.75713404E-01 -2.97187772E-01  4.20299433E-01  2.60522623E-04
  2.28822949E-01  3.41144806E-01  1.16514491E-01 -2.75106779E-01 -1.70524950E-04
  2.41165844E-04  1.69464994E-02  1.44227969E-01  1.69424374E-02  1.44214154E-01
  1.80244188E-02  1.47824615E-01  1.00000000E+00  9.18314205E-02  4.74638745E-01
 -1.53391913E-01  2.16935352E-01  1.34467388E-04  7.03028343E-01 -3.36686899E-01
  4.76161289E-01  2.95148598E-04  3.77026792E-01  4.03985035E-01  3.50071764E-01
 -6.60280709E-02 -4.09275028E-05  5.78819449E-05  1.44227969E-01  3.93335202E-01
  1.44214154E-01  3.93311996E-01  1.47824615E-01  3.99347926E-01  6.58292049E-01
  1.00000000E+00
Core Hamiltonian Matrix                    R   N=         276
 -1.98812393E+01 -4.08454889E+00 -6.71945104E+00 -1.70312476E-03 -1.20437391E-02
 -6.00129565E+00  5.21813544E-08 -2.65062318E-07 -5.82296313E-06 -5.99175731E+00
  1.18202263E-06  8.59367115E-06 -2.22774187E-06 -8.54186286E-10 -5.98220481E+00
 -3.51967449E+00 -5.37815133E+00 -1.12903916E-02 -1.40114423E-06  8.48322096E-06
 -5.44218443E+00 -2.86113797E-04 -8.02337987E-03 -3.07797149E+00 -3.87139008E-06
 -1.46583753E-06 -1.28911034E-02 -3.76853075E+00  8.76137637E-09 -1.24446537E-06
 -3.87139008E-06 -3.06984377E+00 -5.56998574E-10 -5.29097535E-06 -3.33759282E-06
 -3.75556295E+00  1.98573814E-07  6.12066954E-06 -1.46583753E-06 -5.56998574E-10
 -3.06170464E+00  1.10536412E-05 -1.21273298E-06 -4.43853041E-10 -3.74257865E+00
 -1.50240546E+00 -4.42475814E+00 -1.98770977E-02 -9.21591615E-07 -1.17117270E-05
 -3.78053574E+00 -1.57425904E-02 -1.65492123E-06 -1.18044426E-05 -4.75072715E+00
 -1.50214056E+00 -4.41659256E+00  5.80805338E-02  3.00718409E-06 -1.91522828E-06
 -3.77186699E+00  5.72298471E-02  1.22777158E-06 -2.60707356E-06 -2.31419084E+00
 -4.76815240E+00 -1.50187524E+00 -4.40841476E+00 -6.64788303E-02 -3.08367059E-06
  3.39417713E-05 -3.76318566E+00 -6.30391246E-02 -3.12360927E-06  3.09295011E-05
 -2.31419156E+00 -2.27515721E+00 -4.74651032E+00 -3.15158377E-07 -8.91773422E-06
 -1.59624350E-06  1.00598435E-01  1.25318483E-04 -8.31606052E-06 -2.86640765E-06
  9.91250028E-02  1.21002060E-04 -8.43146874E-06 -1.04570994E-05 -4.44648905E-06
 -3.74257252E+00 -1.21063591E-07 -3.41570829E-06 -2.02853062E-05  1.25318483E-04
 -1.15144712E-01 -3.16964302E-06 -2.04458944E-05  1.21002060E-04 -1.09186967E-01
 -2.13030707E-05  4.35812594E-06  8.01063555E-06  8.04797274E-06 -3.74257469E+00
 -4.65827143E-11 -1.31100221E-09  1.25318483E-04 -3.31727270E-06 -5.34107413E-06
 -1.21139415E-09  1.21002060E-04 -4.51558386E-06 -5.41024996E-06  4.64649923E-06
 -6.77585727E-05  6.31086455E-05  7.54849556E-06 -7.70154494E-06 -3.62547162E+00
 -6.20039721E-01 -1.74073102E+00 -1.27543272E+00 -1.03121091E-03  1.62895822E+00
 -1.99057183E+00 -1.40671474E+00 -1.13764501E-03  1.79703418E+00 -1.42068512E+00
 -8.08897403E-01 -1.80609904E+00 -8.55274714E-04  1.35118381E+00  1.09377055E-03
 -4.05486279E+00 -1.75577685E+00 -3.09249036E+00 -8.94948911E-01 -7.19789656E-04
  1.13354314E+00 -3.51875978E+00 -1.30683200E+00 -1.05333092E-03  1.65602418E+00
 -2.26227438E+00 -2.09422851E+00 -2.35615688E+00 -2.28272385E-04  3.56954593E-01
  2.91595023E-04 -2.96838983E+00 -3.90985286E+00 -6.20069889E-01 -1.74077672E+00
 -1.27589865E+00  9.29590961E-04 -1.62864370E+00 -1.99060216E+00 -1.40720607E+00
  1.02539966E-03 -1.79665857E+00 -1.42113977E+00 -8.08921393E-01 -1.80571280E+00
  7.70709805E-04 -1.35138174E+00  9.85838032E-04 -1.80432055E-01 -9.05508520E-01
 -4.05488500E+00 -1.75580046E+00 -3.09252124E+00 -8.95257638E-01  6.46481498E-04
 -1.13329553E+00 -3.51878411E+00 -1.30727721E+00  9.43124507E-04 -1.65565531E+00
 -2.26240752E+00 -2.09424992E+00 -2.35606438E+00  1.99522938E-04 -3.57001282E-01
  2.62305560E-04 -9.05504710E-01 -2.04889350E+00 -2.96840328E+00 -3.90986299E+00
 -6.19951578E-01 -1.73756905E+00  1.19134748E+00  1.68600440E+00  8.45063786E-04
 -1.98629200E+00  1.31386866E+00  1.85906941E+00  9.31668598E-04 -1.34234431E+00
 -1.87756837E+00 -8.07420671E-01 -1.30888578E+00 -6.56255407E-04 -9.28739335E-04
 -1.38692503E-01 -8.12012214E-01 -1.38699831E-01 -8.12028937E-01 -4.04420333E+00
 -1.75569440E+00 -3.08888892E+00  8.26950549E-01  1.17580510E+00  5.92529613E-04
 -3.51259010E+00  1.20930686E+00  1.71726667E+00  8.64872650E-04 -2.23711735E+00
 -2.37671599E+00 -2.08915194E+00 -3.45268403E-01 -1.75226617E-04 -2.47663891E-04
 -8.13243938E-01 -1.92879303E+00 -8.13264250E-01 -1.92881700E+00 -2.96137360E+00
 -3.89990949E+00 -6.19872885E-01 -1.73744455E+00  1.19130544E+00 -1.68589821E+00
 -1.04316051E-03 -1.98620551E+00  1.31387633E+00 -1.85902893E+00 -1.15047953E-03
 -1.34227892E+00 -1.87744377E+00 -8.07355537E-01  1.30884902E+00  8.10369602E-04
 -1.14643724E-03 -1.38706026E-01 -8.12035445E-01 -1.38679652E-01 -8.11971225E-01
 -1.45754531E-01 -8.28673442E-01 -4.04412657E+00 -1.75563278E+00 -3.08880175E+00
  8.26962349E-01 -1.17579141E+00 -7.22579941E-04 -3.51251535E+00  1.20933749E+00
 -1.71726884E+00 -1.05543967E-03 -2.23706223E+00 -2.37665275E+00 -2.08909061E+00
  3.45269618E-01  2.13493067E-04 -3.02826919E-04 -8.13278668E-01 -1.92882865E+00
 -8.13217919E-01 -1.92874687E+00 -8.28685049E-01 -1.94825005E+00 -2.96132613E+00
 -3.89986524E+00
Number of independent functions            I               23
Alpha MO coefficients                      R   N=         529
  9.92804982E-01  4.97598042E-02  4.56997602E-05 -2.89198963E-09 -3.08049645E-08
 -1.46097161E-02 -1.99335525E-04 -6.27767322E-08  1.55155676E-07 -9.33687285E-03
 -9.32922043E-03 -9.36317646E-03  3.66553269E-08  2.13087740E-08  1.83920850E-08
 -1.45212412E-04  2.63476922E-03 -1.45255934E-04  2.63473544E-03 -1.75189343E-04
  2.55418048E-03 -1.75130453E-04  2.55411117E-03  1.98398417E-01 -3.80101994E-01
 -6.91092293E-03  2.07150224E-06  3.76925578E-06 -3.61559547E-01 -3.19514352E-03
 -8.83568241E-07  2.34646852E-06 -3.46079713E-03 -1.26745200E-03  1.59315032E-04
 -1.02197937E-06 -2.59972487E-07  3.16383890E-07 -1.35842492E-01 -3.86250871E-02
 -1.35843725E-01 -3.86258821E-02 -1.33636508E-01 -3.87177317E-02 -1.33629786E-01
 -3.87159387E-02  3.54659601E-03 -7.53842153E-03  4.45577662E-01  2.36537076E-04
  4.63499092E-05 -8.71942684E-03  2.10370139E-01  1.10203674E-04  2.13347833E-05
  2.44265542E-03 -2.23599800E-02  2.05810466E-02 -1.24633329E-05  8.04050851E-06
 -2.87987412E-05  1.69957816E-01  1.38779038E-01  1.70066278E-01  1.38866659E-01
 -1.69731582E-01 -1.39478407E-01 -1.69484615E-01 -1.39278749E-01 -1.20039567E-06
  1.71408771E-06 -2.32306145E-04  4.46179413E-01  4.90827141E-06  7.22709839E-06
 -1.13488286E-04  2.15062843E-01  2.99384067E-06 -6.45419997E-07  1.10452722E-05
 -1.01160392E-05 -2.51546374E-02 -2.93833543E-05  1.84705295E-06  5.14536262E-05
  4.46714322E-05 -2.20763495E-04 -1.86674076E-04 -2.39939958E-01 -2.01556709E-01
  2.40115058E-01  2.01707804E-01 -2.94412964E-06  6.67334480E-06 -4.46200054E-05
 -5.39405687E-06  4.47129093E-01  5.54410330E-06 -2.25412511E-05 -2.27417801E-06
  2.19129435E-01  5.65941295E-06  4.86069156E-06 -1.12624277E-05 -3.03734854E-05
  2.67428378E-02  8.96229803E-07 -2.38624989E-01 -2.09116007E-01  2.38547978E-01
  2.09048066E-01 -9.95651290E-05 -8.55437721E-05  1.73016097E-04  1.51069261E-04
  1.62918658E-01 -1.96308900E-01 -1.04003332E-03 -2.02916253E-05  6.41695422E-06
 -2.60467842E+00 -2.49971952E-02 -5.94812806E-05  3.32178738E-05  1.21737091E-02
  1.33691171E-02  1.24820143E-02 -9.03318956E-07  1.34256161E-07  9.52339455E-07
  1.67217136E-02  9.86102212E-01  1.67246128E-02  9.86095339E-01  2.25078942E-02
  9.94185309E-01  2.25167128E-02  9.94260786E-01 -1.33941740E-06  5.33091748E-06
 -7.42166106E-05  1.97554724E-04  3.80418643E-01  4.31694324E-06 -2.46742813E-04
  7.14297625E-04  1.30833258E+00 -4.75031321E-06 -4.81930923E-06  9.45820638E-06
  3.62226939E-05 -2.10150698E-02 -1.30427159E-06  1.14230677E-01  1.49202850E+00
 -1.14191104E-01 -1.49137219E+00  9.48621776E-05  1.34400845E-03 -1.49740364E-04
 -1.98066180E-03  6.59832950E-06 -4.19984799E-06 -3.10914023E-04  3.82456304E-01
 -2.01479711E-04 -1.83318482E-04 -1.08028349E-03  1.36162546E+00 -6.83598068E-04
  1.16214905E-06 -1.14248702E-05  1.21422107E-05  2.04691076E-02  3.36702656E-05
 -1.84343645E-06 -6.80926754E-05 -7.78065341E-04  1.70662611E-04  2.56525017E-03
  1.04404610E-01  1.52725261E+00 -1.04519257E-01 -1.52878592E+00 -2.25482944E-04
 -4.46328842E-03  3.89922707E-01  3.00733715E-04  6.96493556E-05  4.22993893E-02
  1.40605831E+00  1.11252256E-03  2.58503270E-04 -7.97572573E-04  1.50102338E-02
 -1.46192882E-02  1.49775156E-05 -8.00723554E-06  1.97710897E-05 -6.15005307E-02
 -1.12443403E+00 -6.15614947E-02 -1.12540783E+00  6.97789942E-02  1.08768549E+00
  6.96264258E-02  1.08523075E+00  5.90105809E-07  1.82045054E-05  4.93578110E-05
  1.85454577E-04  7.65557420E-01 -2.39684081E-05 -1.20773700E-04 -3.42020458E-04
 -1.36274792E+00  2.45321376E-05  4.99205057E-06 -2.56846702E-05 -1.41335128E-04
  1.00056582E-01  4.02937697E-06 -4.03425966E-01 -1.01408524E-01  4.03411635E-01
  1.01424235E-01 -3.06329799E-04 -1.15983053E-04  3.54696357E-04  7.37633172E-05
  1.90864646E-06  2.52685664E-05 -2.36326271E-04 -7.65494071E-01  1.82850200E-04
 -6.53091395E-05  5.29428486E-04  1.45018493E+00 -3.35257789E-04 -2.10762810E-06
  3.29208458E-05 -2.79776610E-05  1.02348891E-01  1.42511015E-04 -8.65135165E-06
 -4.16370709E-04 -2.21829025E-04  2.48355794E-04  5.24320838E-05  4.03304181E-01
  1.81018835E-01 -4.03088071E-01 -1.80844282E-01 -2.87994176E-04 -1.82713968E-02
  7.63928245E-01 -2.52745844E-04 -5.42938040E-05  4.29056625E-03 -1.55654380E+00
  4.29622028E-04  7.77110936E-05  4.11936285E-03 -9.46051989E-02  8.42330420E-02
  3.71342285E-05  1.69293173E-05 -1.19676884E-04  2.75150343E-01  2.10332451E-01
  2.75195187E-01  2.10414215E-01 -2.96351540E-01 -1.80402735E-01 -2.96621402E-01
 -1.80461226E-01 -9.44482744E-06 -7.00838245E-06 -1.94377119E-04  1.01662032E-04
  8.43004574E-01  8.45824161E-05  2.85998110E-04 -1.45811682E-04 -1.21641447E+00
 -4.70418350E-05 -6.21544830E-05  1.03744622E-04  2.60299522E-04 -2.01576110E-01
 -8.96313933E-06  7.20584922E-01 -1.40701965E+00 -7.20316119E-01  1.40632744E+00
  2.75761818E-04 -6.30895337E-04 -7.33025596E-04  1.33417926E-03 -2.71286979E-05
  1.91450778E-04 -9.62162482E-04  8.50490722E-01 -1.01887412E-04 -2.34015114E-04
  1.39544932E-03 -1.22340140E+00  1.47095130E-04  8.78789502E-06 -1.93781364E-04
  1.94883218E-04  2.04928817E-01  2.60901738E-04 -1.75144073E-05 -1.02251857E-04
  1.64216197E-05  9.16099090E-04 -1.94466629E-03  7.24471023E-01 -1.39292951E+00
 -7.25970153E-01  1.39539127E+00  1.91476134E-02 -7.14100089E-02  8.46013379E-01
  1.00479668E-03  2.05451482E-04  2.29753165E-02 -1.22059897E+00 -1.44120190E-03
 -2.86558194E-04 -7.43611962E-03  1.79282765E-01 -1.71324376E-01  2.35402823E-04
 -9.69198922E-05  2.32034706E-04 -3.98072752E-01  9.10079607E-01 -3.98598264E-01
  9.11082586E-01  6.21315251E-01 -1.02651352E+00  6.19649190E-01 -1.02329636E+00
  9.85363892E-02 -7.99429033E-01 -1.39584709E-01  7.60494121E-05  1.77613591E-05
  1.10730688E+00  1.46629445E-01 -1.19656355E-04  7.93162867E-06  5.79400333E-03
 -6.33127607E-02 -7.15404476E-03  2.18149590E-05 -5.28328597E-07 -5.37701709E-05
  7.31961242E-01 -6.69397634E-01  7.31942346E-01 -6.69422835E-01  5.51179593E-01
 -4.01869985E-01  5.51074161E-01 -4.01626025E-01  9.87539569E-02  2.05541651E+00
 -4.75482601E-03 -2.86835307E-06 -1.24272940E-06 -5.43269013E+00 -9.66393312E-02
 -2.11675001E-05  7.60091754E-05  1.56338570E-01  8.53260939E-02  1.01568567E-01
 -8.64069407E-06 -1.59727961E-05 -3.69477559E-05  3.12612797E-01  1.03395254E+00
  3.12558676E-01  1.03397396E+00  2.61054114E-01  1.02885952E+00  2.61120731E-01
  1.02876363E+00 -1.08750936E-02 -1.04582440E-01 -1.15114569E-04 -2.12948600E-06
  8.18744240E-07  3.31158000E-01  1.20740821E-02  4.30610749E-06 -7.65720312E-06
  9.95266648E-01 -4.53142809E-01 -5.50250346E-01  1.19373299E-05 -2.40200166E-04
  2.76391421E-03 -5.78227806E-02 -5.49786305E-02 -5.78217623E-02 -5.49756529E-02
 -5.02487478E-02 -5.07869259E-02 -5.02485391E-02 -5.07874503E-02 -3.62919916E-05
 -3.48813958E-04 -3.91696696E-07  3.29776026E-07 -1.49455600E-06  1.10469598E-03
  3.86028575E-05  1.00588406E-06 -9.98225182E-07  2.68384429E-03 -2.19036235E-04
 -2.49179151E-03 -8.75850747E-05  3.48618218E-05 -9.99995504E-01 -1.94614948E-04
 -1.82342243E-04 -1.88475716E-04 -1.84323277E-04 -1.67358786E-04 -1.69710538E-04
 -1.71444037E-04 -1.69047746E-04  3.82141812E-04 -1.55618269E-02  1.46550730E-01
 -1.93042513E-04  1.53797298E-06  3.21003783E-02  4.86167078E-01 -5.75612335E-04
 -7.57907060E-07  6.57238722E-02 -1.00198949E+00  9.42201117E-01  1.58085872E-03
  2.38010691E-04 -1.30269979E-03 -4.68863807E-01  1.57942009E-02 -4.69006259E-01
  1.57873798E-02  4.78009857E-01 -3.71641208E-02  4.79856483E-01 -3.73927188E-02
  3.82383881E-06 -4.01433813E-05  2.14314663E-04  1.50405572E-01 -2.00760579E-05
  1.86909632E-05  6.83521855E-04  4.32672913E-01 -5.66204707E-05  1.07301969E-04
 -1.41331509E-03  1.32315416E-03 -1.12953011E+00 -1.47674951E-03  9.62479636E-05
 -1.12781326E-03  7.22927718E-05 -1.54478287E-04 -4.05477339E-05  6.75022866E-01
 -7.53506366E-02 -6.73641946E-01  7.52608164E-02 -1.86837879E-06  1.47737793E-05
  8.84688956E-06  2.38905476E-05  1.50306748E-01 -2.12235337E-06  1.90819227E-05
  6.28770240E-05  3.82220438E-01  2.57201180E-04  8.54169756E-05 -3.50369915E-04
 -1.48408707E-03  1.13451219E+00  4.14963771E-05  6.75098866E-01 -1.09220527E-01
 -6.75032529E-01  1.09206394E-01  4.37293285E-04 -5.94218014E-05 -5.50555943E-04
  9.52901754E-05 -4.88042720E-01  2.93698620E+00 -5.18642066E-03  2.52823686E-06
  2.80914251E-06  2.44222852E+00  3.06606564E-02  1.01872923E-05 -2.42391132E-05
 -1.87739467E+00 -1.88397388E+00 -1.87667360E+00 -9.34580603E-06 -6.08139845E-06
 -5.98888235E-06  1.24585440E-01 -4.98297909E-01  1.24600086E-01 -4.98299700E-01
  1.31396692E-01 -4.89580388E-01  1.31371219E-01 -4.89558638E-01
Alpha Orbital Energies                     R   N=          23
 -1.01669969E+01 -6.90474860E-01 -3.97985741E-01 -3.89123521E-01 -3.79831358E-01
  1.17709370E-01  1.72853810E-01  1.75607225E-01  1.80520784E-01  5.28719299E-01
  5.32787379E-01  5.39631070E-01  8.88664886E-01  8.97019217E-01  9.05984520E-01
  9.48346946E-01  1.09745455E+00  1.65783053E+00  1.65966622E+00  2.23408930E+00
  2.24089932E+00  2.25229662E+00  4.17833425E+00
Total SCF Density                          R   N=         276
  2.05007248E+00 -5.20731763E-02  2.94020784E-01  5.09078296E-04 -1.45964667E-03
  3.97174543E-01  1.42287416E-06 -3.61177514E-06  3.46268475E-06  3.98152249E-01
 -8.69592894E-07  2.40043075E-06  1.34878193E-06 -4.21797636E-07  3.99848856E-01
 -1.72536730E-01  2.73536518E-01 -2.77428249E-03  8.26311438E-07  1.42492070E-06
  2.62029557E-01 -1.71429243E-04 -7.62595200E-04  1.87516668E-01 -1.76459140E-06
 -6.81613019E-07 -1.35232220E-03  8.85317147E-02 -2.09858984E-07 -2.58836110E-07
 -1.69983965E-06  1.91913278E-01  8.76805094E-08  1.82746906E-06 -2.44132855E-06
  9.25040771E-02  1.00183530E-07  8.34647944E-07 -5.76316767E-07  3.17689531E-07
  1.95958293E-01  3.56431810E-07 -9.18236573E-07  2.95747264E-07  9.60354198E-02
 -1.98952949E-02  1.66488239E-03  2.22376639E-03  5.65265761E-07  5.26188972E-06
  2.73278955E-03  1.05356124E-03  2.68029719E-07  2.56537247E-06  2.10241819E-04
 -1.91857177E-02  3.72199710E-04 -1.99095549E-02 -7.26831950E-07  2.26507563E-06
  1.57904590E-03 -9.39592825E-03 -1.74059620E-07  1.16737364E-06  7.37488666E-05
  1.17721928E-03 -1.83824154E-02 -1.36322897E-03  1.83378572E-02  7.10060068E-07
 -8.16198035E-06 -2.00527174E-04  8.66199284E-03  1.85990896E-07 -4.05989294E-06
  2.74287558E-04 -7.46085490E-04  1.02254833E-03 -3.60569928E-07  8.81828539E-07
  5.97227715E-07 -2.24469682E-02 -2.74098326E-05  5.91361125E-07  4.73572626E-07
 -1.08196583E-02 -1.34626040E-05 -2.23712013E-08  3.29153035E-09 -4.41417504E-09
  1.26551372E-03 -1.61210694E-07  4.35354901E-07  4.79605794E-06 -2.65051976E-05
  2.39150021E-02  3.43256586E-07  2.18565388E-06 -1.27583987E-05  1.17202861E-02
  3.43417347E-07 -9.99815244E-08 -2.71301779E-07 -1.46491032E-07  1.43036060E-03
 -4.22250797E-08  1.95526473E-07 -2.56694610E-05  1.63460170E-06  7.98811715E-07
  2.72933031E-07 -1.21192791E-05  7.88112826E-07  3.91564381E-07 -1.43216372E-07
  1.28678290E-06 -1.18571764E-06 -9.22611264E-08  4.73636345E-08  1.66736553E-09
 -5.29832575E-02  1.00687941E-01  1.53357664E-01  1.28329265E-04 -2.13377618E-01
  9.52680281E-02  7.23869751E-02  6.09168995E-05 -1.04572903E-01  1.77055401E-03
 -7.25576823E-03  6.96062921E-03  7.94831475E-06 -1.27602181E-02 -1.03026400E-05
  2.08561502E-01 -9.10907066E-03  2.75300159E-02  1.24226430E-01  1.07611651E-04
 -1.86991127E-01  2.54310862E-02  5.86451233E-02  5.08213091E-05 -9.16412036E-02
  8.93757904E-04 -6.15947474E-03  5.65549838E-03  7.07561914E-06 -1.11824616E-02
 -8.39233397E-06  1.57466870E-01  1.28975934E-01 -5.29858731E-02  1.00693607E-01
  1.53411882E-01 -1.19682576E-04  2.13338221E-01  9.52723170E-02  7.24111672E-02
 -5.83171208E-05  1.04552385E-01  1.77649462E-03 -7.25598197E-03  6.95435144E-03
 -7.34615273E-06  1.27617182E-02 -9.45458025E-06 -1.91321114E-02 -4.20719662E-02
  2.08562529E-01 -9.11129338E-03  2.75348761E-02  1.24267315E-01 -1.03301309E-04
  1.86955524E-01  2.54347673E-02  5.86631947E-02 -5.05689814E-05  9.16229131E-02
  8.98925517E-04 -6.15933047E-03  5.64969102E-03 -6.68993934E-06  1.11833413E-02
 -7.64869362E-06 -4.20719491E-02 -4.58893076E-02  1.57462543E-01  1.28967957E-01
 -5.45777630E-02  1.04131764E-01 -1.49298627E-01 -2.14193387E-01 -1.08133809E-04
  9.95966846E-02 -7.05044020E-02 -1.03241512E-01 -5.29415601E-05  9.93661905E-05
  7.92711264E-03 -7.02095042E-03  1.20757153E-02  6.11519312E-06  8.80500238E-06
 -2.13645084E-02 -3.67676465E-02 -2.13653858E-02 -3.67694291E-02  2.08477500E-01
 -1.12803299E-02  3.17897671E-02 -1.23667887E-01 -1.79927051E-01 -9.16984629E-05
  3.03523286E-02 -5.83920319E-02 -8.67253913E-02 -4.48295647E-05 -4.60843849E-04
  6.28350414E-03 -5.79731047E-03  1.01437331E-02  5.04674326E-06  7.26447453E-06
 -3.68725220E-02 -3.56911778E-02 -3.68745871E-02 -3.56938431E-02  1.54418125E-01
  1.23169854E-01 -5.45743813E-02  1.04124586E-01 -1.49301698E-01  2.14188057E-01
  1.40359609E-04  9.95944574E-02 -7.05095095E-02  1.03242534E-01  6.94045663E-05
  9.99084886E-05  7.92665748E-03 -7.02050235E-03 -1.20755271E-02 -7.51290111E-06
  1.05646446E-05 -2.13630749E-02 -3.67707304E-02 -2.13651203E-02 -3.67666196E-02
 -2.19769478E-02 -3.91679538E-02  2.08474512E-01 -1.12793094E-02  3.17867725E-02
 -1.23677369E-01  1.79929688E-01  1.23871863E-04  3.03533838E-02 -5.83995815E-02
  8.67290770E-02  6.12913428E-05 -4.60397447E-04  6.28348284E-03 -5.79725448E-03
 -1.01442314E-02 -5.99316722E-06  8.74310182E-06 -3.68765671E-02 -3.56988305E-02
 -3.68723292E-02 -3.56901614E-02 -3.91687189E-02 -3.94473584E-02  1.54423735E-01
  1.23180157E-01
Pure Switching                             I                1
Dipole_Data                                R   N=           3
  3.05902168E-02 -1.31965876E-06 -2.11916124E-05
Quadrupole_Data                            R   N=           6
 -8.09116546E+00  4.30266243E-05 -8.23830510E+00  2.25995347E-05  1.81793634E-05
 -8.42858233E+00
Octapole_Data                              R   N=          10
  1.04546397E-01  3.05809955E-06 -6.91424488E-01 -7.35446632E-05  1.60146324E-04
 -7.72486437E-04  5.07988810E-05  6.40851039E-01  6.89705880E-06 -2.34330808E-04
Hexadecapole_Data                          R   N=          15
 -1.59434991E+01  7.09460081E-05 -4.82785307E+00  6.27229639E-05 -1.50377231E+01
  2.33595035E-04 -2.46796311E-05 -4.75008951E-05  7.72656033E-04 -4.79247412E+00
  5.19487281E-05 -5.42294396E+00 -7.89855692E-05 -6.48823489E-04 -1.50418691E+01
