Jobname.Temp
SP        R                             6-31G(d)            
Number of atoms                            I                5
Charge                                     I                0
Multiplicity                               I                1
Number of electrons                        I               10
Number of alpha electrons                  I                5
Number of beta electrons                   I                5
Atomic numbers                             I   N=           5
           6           1           1           1           1
Current cartesian coordinates              R   N=          15
 -4.57406844E-02 -1.29957012E-05  1.57672402E-05  1.37569873E+00  3.04359649E-04
 -1.49936081E+00  1.37582091E+00 -2.84590892E-04  1.49924758E+00 -1.23855003E+00
 -1.68691483E+00 -2.52405737E-04 -1.23852551E+00  1.68697304E+00  2.71036569E-04
Nuclear charges                            R   N=           5
  6.00000000E+00  1.00000000E+00  1.00000000E+00  1.00000000E+00  1.00000000E+00
Number of basis functions                  I               23
Number of contracted shells                I               12
Number of primitive shells                 I               27
Highest angular momentum                   I                2
Largest degree of contraction              I                6
Shell types                                I   N=          12
           0          -1          -1           2           0           0
           0           0           0           0           0           0
Number of primitives per shell             I   N=          12
           6           3           1           1           3           1
           3           1           3           1           3           1
Shell to atom map                          I   N=          12
           1           1           1           1           2           2
           3           3           4           4           5           5
Primitive exponents                        R   N=          27
  3.04752490E+03  4.57369510E+02  1.03948690E+02  2.92101550E+01  9.28666300E+00
  3.16392700E+00  7.86827240E+00  1.88128850E+00  5.44249300E-01  1.68714400E-01
  8.00000000E-01  1.87311370E+01  2.82539370E+00  6.40121700E-01  1.61277800E-01
  1.87311370E+01  2.82539370E+00  6.40121700E-01  1.61277800E-01  1.87311370E+01
  2.82539370E+00  6.40121700E-01  1.61277800E-01  1.87311370E+01  2.82539370E+00
  6.40121700E-01  1.61277800E-01
Contraction coefficients                   R   N=          27
  1.83470016E-03  1.40373012E-02  6.88426061E-02  2.32184421E-01  4.67941342E-01
  3.62312032E-01 -1.19332409E-01 -1.60854212E-01  1.14345648E+00  1.00000000E+00
  1.00000000E+00  3.34945995E-02  2.34726947E-01  8.13757318E-01  1.00000000E+00
  3.34945995E-02  2.34726947E-01  8.13757318E-01  1.00000000E+00  3.34945995E-02
  2.34726947E-01  8.13757318E-01  1.00000000E+00  3.34945995E-02  2.34726947E-01
  8.13757318E-01  1.00000000E+00
P(S=P) Contraction coefficients            R   N=          27
  0.00000000E+00  0.00000000E+00  0.00000000E+00  0.00000000E+00  0.00000000E+00
  0.00000000E+00  6.89990956E-02  3.16423980E-01  7.44308252E-01  1.00000000E+00
  0.00000000E+00  0.00000000E+00  0.00000000E+00  0.00000000E+00  0.00000000E+00
  0.00000000E+00  0.00000000E+00  0.00000000E+00  0.00000000E+00  0.00000000E+00
  0.00000000E+00  0.00000000E+00  0.00000000E+00  0.00000000E+00  0.00000000E+00
  0.00000000E+00  0.00000000E+00
Coordinates of each shell                  R   N=          36
 -4.57406844E-02 -1.29957012E-05  1.57672402E-05 -4.57406844E-02 -1.29957012E-05
  1.57672402E-05 -4.57406844E-02 -1.29957012E-05  1.57672402E-05 -4.57406844E-02
 -1.29957012E-05  1.57672402E-05  1.37569873E+00  3.04359649E-04 -1.49936081E+00
  1.37569873E+00  3.04359649E-04 -1.49936081E+00  1.37582091E+00 -2.84590892E-04
  1.49924758E+00  1.37582091E+00 -2.84590892E-04  1.49924758E+00 -1.23855003E+00
 -1.68691483E+00 -2.52405737E-04 -1.23855003E+00 -1.68691483E+00 -2.52405737E-04
 -1.23852551E+00  1.68697304E+00  2.71036569E-04 -1.23852551E+00  1.68697304E+00
  2.71036569E-04
Overlap Matrix                             R   N=         276
  1.00000000E+00  2.19058872E-01  1.00000000E+00  2.55707032E-18  9.30093157E-18
  1.00000000E+00 -2.97652720E-23 -1.76633359E-21  1.40668398E-38  1.00000000E+00
 -6.64573772E-22 -3.86063679E-21 -3.94314184E-38  0.00000000E+00  1.00000000E+00
  1.84261053E-01  8.12273068E-01  4.12365287E-19 -2.05724295E-21  0.00000000E+00
  1.00000000E+00  4.49517096E-19 -1.04431975E-19  5.69754058E-01  0.00000000E+00
  0.00000000E+00  0.00000000E+00  1.00000000E+00  1.27403140E-22 -1.15591242E-21
  0.00000000E+00  5.69754058E-01  0.00000000E+00  0.00000000E+00  0.00000000E+00
  1.00000000E+00  2.93980434E-25  0.00000000E+00  0.00000000E+00  0.00000000E+00
  5.69754058E-01  0.00000000E+00  0.00000000E+00  0.00000000E+00  1.00000000E+00
  7.91027073E-02  7.10235064E-01  3.78202671E-19  0.00000000E+00  0.00000000E+00
  6.29936196E-01  1.07724413E-17  0.00000000E+00 -1.75332704E-21  1.00000000E+00
  7.91027073E-02  7.10235064E-01  1.26067557E-19  0.00000000E+00  0.00000000E+00
  6.29936196E-01  3.59081378E-18  0.00000000E+00 -1.75332704E-21  3.33333333E-01
  1.00000000E+00  7.91027073E-02  7.10235064E-01  1.26067557E-19  0.00000000E+00
  0.00000000E+00  6.29936196E-01  3.59081378E-18  0.00000000E+00 -5.25998112E-21
  3.33333333E-01  3.33333333E-01  1.00000000E+00  9.80160360E-39  0.00000000E+00
  0.00000000E+00  2.18355414E-19  0.00000000E+00  0.00000000E+00  0.00000000E+00
  6.21947190E-18  0.00000000E+00  0.00000000E+00  0.00000000E+00  0.00000000E+00
  1.00000000E+00 -8.04816127E-43  0.00000000E+00  0.00000000E+00  0.00000000E+00
  2.18355414E-19 -4.96973789E-38 -3.03685151E-21  0.00000000E+00  6.21947190E-18
  0.00000000E+00  0.00000000E+00  0.00000000E+00  0.00000000E+00  1.00000000E+00
 -9.18653478E-44  0.00000000E+00  0.00000000E+00  0.00000000E+00  0.00000000E+00
  0.00000000E+00  0.00000000E+00 -3.03685151E-21  0.00000000E+00  0.00000000E+00
  0.00000000E+00  0.00000000E+00  0.00000000E+00  0.00000000E+00  1.00000000E+00
  3.22654588E-02  2.71604305E-01  2.52664684E-01  5.64107682E-05 -2.66518225E-01
  3.75715315E-01  3.54148258E-01  7.90683327E-05 -3.73566117E-01  2.76002250E-01
  1.16515992E-01  2.93970897E-01  6.16738967E-05 -2.91384393E-01 -6.50554609E-05
  1.00000000E+00  9.18319546E-02  4.74640908E-01  1.82791706E-01  4.08106918E-05
 -1.92814129E-01  7.03030508E-01  4.01217172E-01  8.95770970E-05 -4.23215808E-01
  3.88351231E-01  3.50073500E-01  3.92663822E-01  1.48021331E-05 -6.99341341E-02
 -1.56137303E-05  6.58292049E-01  1.00000000E+00  3.22670405E-02  2.71611275E-01
  2.52693818E-01 -4.82781937E-05  2.66500314E-01  3.75719756E-01  3.54182898E-01
 -6.76681000E-05  3.73534478E-01  2.76038952E-01  1.16519659E-01  2.93946546E-01
 -5.27873977E-05  2.91391558E-01 -5.56715561E-05  3.96897192E-02  2.02203525E-01
  1.00000000E+00  9.18331960E-02  4.74645936E-01  1.82809436E-01 -3.49264950E-05
  1.92797641E-01  7.03035538E-01  4.01254529E-01 -7.66613288E-05  4.23177974E-01
  3.88362335E-01  3.50077577E-01  3.92660172E-01 -1.26690177E-05  6.99342068E-02
 -1.33612180E-05  2.02203525E-01  4.84287288E-01  6.58292049E-01  1.00000000E+00
  3.22688893E-02  2.71619422E-01 -2.12038571E-01 -2.99870434E-01 -4.76715037E-05
  3.75724947E-01 -2.97193261E-01 -4.20298401E-01 -6.68163796E-05  2.28839987E-01
  3.41159944E-01  1.16523949E-01  2.75119394E-01  4.37367399E-05  6.18536295E-05
  1.50768685E-02  1.37641033E-01  1.50777269E-02  1.37644169E-01  1.00000000E+00
  9.18346470E-02  4.74651812E-01 -1.53394422E-01 -2.16934361E-01 -3.44868517E-05
  7.03041419E-01 -3.36689002E-01 -4.76154300E-01 -7.56959969E-05  3.77037541E-01
  4.03993678E-01  3.50082344E-01  6.60270571E-02  1.04965636E-05  1.48445119E-05
  1.37641033E-01  3.82170855E-01  1.37644169E-01  3.82176219E-01  6.58292049E-01
  1.00000000E+00  3.22647783E-02  2.71601305E-01 -2.12018036E-01  2.99862524E-01
  4.53742375E-05  3.75713404E-01 -2.97177992E-01  4.20306424E-01  6.35994230E-05
  2.28815557E-01  3.41152279E-01  1.16514410E-01 -2.75102302E-01 -4.16276000E-05
  5.88749778E-05  1.50789199E-02  1.37648527E-01  1.50756604E-02  1.37636619E-01
  1.80244188E-02  1.47824615E-01  1.00000000E+00  9.18314205E-02  4.74638745E-01
 -1.53386865E-01  2.16938961E-01  3.28265093E-05  7.03028343E-01 -3.36675819E-01
  4.76169209E-01  7.20524010E-05  3.77025018E-01  4.03986829E-01  3.50071745E-01
 -6.60269963E-02 -9.99099378E-06  1.41305177E-05  1.37648527E-01  3.82183673E-01
  1.37636619E-01  3.82163306E-01  1.47824615E-01  3.99347926E-01  6.58292049E-01
  1.00000000E+00
Core Hamiltonian Matrix                    R   N=         276
 -1.98812393E+01 -4.08454889E+00 -6.71945104E+00 -4.91819964E-03 -3.47790751E-02
 -6.02099669E+00  4.05651112E-08 -3.47104446E-07 -5.91936871E-06 -5.99175731E+00
  1.20400518E-06  8.73075060E-06 -2.17752382E-06 -3.79051394E-10 -5.96250377E+00
 -3.51967449E+00 -5.37815133E+00 -3.26031736E-02 -1.47786773E-06  8.57832823E-06
 -5.44218443E+00 -8.26225306E-04 -2.31689556E-02 -3.09475850E+00 -3.95335834E-06
 -1.41088539E-06 -3.72241370E-02 -3.79531333E+00  6.80992441E-09 -1.29894767E-06
 -3.95335834E-06 -3.06984377E+00 -2.41924516E-10 -5.37797817E-06 -3.46790501E-06
 -3.75556294E+00  2.02266601E-07  6.18104875E-06 -1.41088539E-06 -2.41924516E-10
 -3.04491763E+00  1.10552812E-05 -1.09339176E-06 -1.74917927E-10 -3.71579608E+00
 -1.50295263E+00 -4.44162387E+00 -5.98445953E-02  1.86201312E-06 -2.82495873E-07
 -3.79844049E+00 -4.78206142E-02  1.04076004E-06 -7.47441441E-07 -4.78891401E+00
 -1.50214056E+00 -4.41659256E+00  4.97548894E-02 -1.45431241E-06  3.71497820E-06
 -3.77186699E+00  5.13619229E-02 -3.05645790E-06  2.81164385E-06 -2.31845010E+00
 -4.76815244E+00 -1.50132808E+00 -4.39154903E+00 -7.15618756E-02 -1.59833032E-06
  1.71932707E-05 -3.74528091E+00 -6.57761332E-02 -1.68137409E-06  1.46099439E-05
 -2.31637828E+00 -2.27089791E+00 -4.70395007E+00 -3.19801661E-07 -9.06072870E-06
  3.22510133E-06  8.61779964E-02  3.68043694E-05 -8.46767655E-06  1.80264927E-06
  8.89614601E-02  3.55366683E-05 -1.15094992E-05 -9.14987964E-06 -3.05405043E-06
 -3.75535029E+00 -1.19038785E-07 -3.34440908E-06 -4.89297206E-07  3.68043694E-05
 -1.23948805E-01 -3.08111167E-06 -1.29460655E-06  3.55366683E-05 -1.13927605E-01
 -1.00274479E-05 -1.03907027E-06  2.32384276E-06  6.82633958E-06 -3.74913485E+00
 -2.08399789E-11 -5.83131766E-10  3.68043694E-05  6.43453099E-06 -2.76838932E-06
 -5.33475186E-10  3.55366683E-05  4.86991000E-06 -2.91222535E-06  3.94118899E-06
 -1.87620565E-05  1.48193440E-05 -1.79972251E-06 -5.28977051E-06 -3.61269372E+00
 -6.20240272E-01 -1.74586464E+00 -1.43404629E+00 -3.18958437E-04  1.50133794E+00
 -1.99760570E+00 -1.58235788E+00 -3.52139173E-04  1.65743392E+00 -1.58308326E+00
 -8.10135954E-01 -1.65611197E+00 -2.96321647E-04  1.39494923E+00  3.11621404E-04
 -4.07238016E+00 -1.75593687E+00 -3.09741690E+00 -1.01643906E+00 -2.23233202E-04
  1.04018042E+00 -3.52740636E+00 -1.48400681E+00 -3.27829058E-04  1.51971513E+00
 -2.31903487E+00 -2.09475007E+00 -2.31215549E+00 -8.02355343E-05  3.65871097E-01
  8.42947468E-05 -2.97990123E+00 -3.92525823E+00 -6.20270456E-01 -1.74591073E+00
 -1.43421186E+00  2.71740446E-04 -1.50123535E+00 -1.99763653E+00 -1.58251530E+00
  2.99911064E-04 -1.65729434E+00 -1.58326522E+00 -8.10160189E-01 -1.65599920E+00
  2.51925441E-04 -1.39497888E+00  2.65610028E-04 -2.82455160E-01 -1.08753876E+00
 -4.07240354E+00 -1.75596048E+00 -3.09744804E+00 -1.01653618E+00  1.87678832E-04
 -1.04008222E+00 -3.52743126E+00 -1.48414226E+00  2.72885367E-04 -1.51956521E+00
 -2.31909510E+00 -2.09477177E+00 -2.31213632E+00  6.20271138E-05 -3.65872466E-01
  7.14957361E-05 -1.08753432E+00 -2.27110835E+00 -2.97991545E+00 -3.92526942E+00
 -6.19815970E-01 -1.73484216E+00  1.18831343E+00  1.68355934E+00  2.68426710E-04
 -1.98268802E+00  1.31049166E+00  1.85572422E+00  2.95729197E-04 -1.33994372E+00
 -1.87497674E+00 -8.05296179E-01 -1.30529506E+00 -2.08323387E-04 -2.95097723E-04
 -1.26139203E-01 -7.79900645E-01 -1.26145838E-01 -7.79916630E-01 -4.03534702E+00
 -1.75557347E+00 -3.08567774E+00  8.18269026E-01  1.17492645E+00  1.90575331E-04
 -3.50719952E+00  1.19900890E+00  1.71519149E+00  2.77619255E-04 -2.23994581E+00
 -2.37523110E+00 -2.07924333E+00 -3.42234091E-01 -5.67249990E-05 -7.98328580E-05
 -7.84081391E-01 -1.88871066E+00 -7.84101059E-01 -1.88873419E+00 -2.95554510E+00
 -3.89154544E+00 -6.19737302E-01 -1.73471800E+00  1.18819323E+00 -1.68350895E+00
 -2.53095789E-04 -1.98260186E+00  1.31041306E+00 -1.85574519E+00 -2.79188482E-04
 -1.33980833E+00 -1.87492291E+00 -8.05231123E-01  1.30521548E+00  1.96632197E-04
 -2.78278826E-04 -1.26150923E-01 -7.79921665E-01 -1.26129526E-01 -7.79866307E-01
 -1.45514102E-01 -8.27012064E-01 -4.03527086E+00 -1.75551186E+00 -3.08559084E+00
  8.18226235E-01 -1.17495162E+00 -1.71924373E-04 -3.50712520E+00  1.19895969E+00
 -1.71525039E+00 -2.51241580E-04 -2.23987228E+00 -2.37518668E+00 -2.07918230E+00
  3.42223689E-01  5.11552607E-05 -7.29138089E-05 -7.84113650E-01 -1.88874384E+00
 -7.84061645E-01 -1.88867268E+00 -8.27023601E-01 -1.94355780E+00 -2.95549802E+00
 -3.89150175E+00
Number of independent functions            I               23
Alpha MO coefficients                      R   N=         529
 -9.92793521E-01 -4.97189753E-02 -1.45827800E-04  3.71486482E-09  3.31690280E-08
  1.43331306E-02  5.36975132E-04  7.29119364E-08 -1.40407341E-07  9.34361585E-03
  9.32905784E-03  9.41293852E-03 -4.00565873E-08 -2.15734480E-08 -1.20645266E-08
  1.32633349E-04 -2.61603706E-03  1.32671132E-04 -2.61600994E-03  2.09406865E-04
 -2.43832212E-03  2.09343675E-04 -2.43827753E-03 -1.97839133E-01  3.79339506E-01
  2.24943032E-02 -1.89936555E-06 -3.76839435E-06  3.58103481E-01  9.82594085E-03
  1.03437606E-06 -2.12305475E-06  7.92478271E-03  7.21552675E-04 -3.60509986E-03
  1.01329453E-06  2.15261148E-07 -2.73073536E-07  1.39777478E-01  3.97400205E-02
  1.39778941E-01  3.97407157E-02  1.30661690E-01  3.85615888E-02  1.30655269E-01
  3.85595589E-02 -1.18345322E-02  2.42720229E-02 -4.43147902E-01 -7.88269408E-05
 -1.58356925E-05  3.09847638E-02 -2.01179660E-01 -3.45651116E-05 -6.69606874E-06
 -7.64881444E-03  2.26630224E-02 -1.71812667E-02  4.58342814E-06 -1.56988268E-06
  7.95311909E-06 -1.70925408E-01 -1.31688716E-01 -1.70958185E-01 -1.31712859E-01
  1.70560621E-01  1.32433722E-01  1.70472033E-01  1.32368294E-01  1.33443763E-06
 -1.85811237E-06  7.44019605E-05 -4.46088111E-01 -3.06470067E-06 -8.01638135E-06
  3.73215844E-05 -2.15981328E-01 -2.11571777E-06  1.71712836E-06 -4.74537492E-06
  2.74830933E-06  2.41670385E-02  8.51082072E-06  4.76841169E-07 -1.08832008E-05
 -1.03072033E-05  6.83787748E-05  5.83967295E-05  2.40703212E-01  2.00091529E-01
 -2.40766353E-01 -2.00148188E-01 -2.99947666E-06  6.75089048E-06 -1.36657648E-05
 -3.89701463E-06  4.50061646E-01  6.06784142E-06 -7.97789882E-06 -1.36013774E-06
  2.30334093E-01  1.64712567E-06  1.36754779E-06 -3.76838806E-06 -9.52737172E-06
  2.83469069E-02  2.73191732E-07 -2.35598458E-01 -2.25279587E-01  2.35574775E-01
  2.25256771E-01 -3.00742665E-05 -2.67839947E-05  4.96072888E-05  4.65807750E-05
 -1.62651269E-01  1.97364824E-01  1.45603788E-02  1.96607379E-05 -5.86253795E-06
  2.58484254E+00  1.03314072E-01  5.91448765E-05 -2.96280647E-05 -1.07022613E-02
 -1.41154241E-02 -1.23824166E-02  8.75034880E-07 -2.34047433E-07 -7.39087609E-07
 -1.55329945E-02 -9.91968869E-01 -1.55368594E-02 -9.91972689E-01 -2.76275534E-02
 -9.70124935E-01 -2.76355822E-02 -9.70200634E-01 -1.46341161E-06  5.37545209E-06
 -4.14229348E-05  1.00932415E-04  3.72873699E-01  3.84949046E-06 -1.32460085E-04
  3.72804361E-04  1.21412993E+00 -1.79433987E-06 -1.65144883E-06  3.19732292E-06
  1.56959700E-05 -2.39673815E-02 -8.58305559E-07  1.32969088E-01  1.44327735E+00
 -1.32956667E-01 -1.44299658E+00  3.99290379E-05  5.31128039E-04 -6.87202601E-05
 -7.89924566E-04 -4.86461161E-06  1.34773397E-06  1.35532756E-04 -3.78738086E-01
  1.04772166E-04  1.56052785E-04  4.63602173E-04 -1.36705617E+00  3.35211564E-04
 -1.85515649E-06  4.55168748E-06 -4.20183704E-06 -2.25096764E-02 -1.34706380E-05
  1.77862488E-07  3.48482652E-05  2.61747802E-04 -7.14726997E-05 -1.08528961E-03
 -1.05761900E-01 -1.52832571E+00  1.05810001E-01  1.52893905E+00 -4.00390584E-03
  1.91618639E-02 -3.98866175E-01 -1.23361767E-04 -3.73439311E-05 -3.56446935E-02
 -1.48868700E+00 -4.89512040E-04 -1.39043180E-04  1.41929617E-03 -1.14123373E-02
  1.02036803E-02 -7.08897361E-06  3.14735954E-06 -4.15720261E-06  4.18666309E-02
  1.16265018E+00  4.18925279E-02  1.16309343E+00 -6.19784917E-02 -1.12352682E+00
 -6.19170437E-02 -1.12240108E+00 -2.86637124E-07 -1.80825331E-05 -1.58627938E-06
 -1.89547114E-04 -7.73327377E-01  2.01523163E-05  3.07479226E-05  3.42537910E-04
  1.22363140E+00 -8.73564120E-06 -2.74117484E-06  7.75877877E-06  5.96258532E-05
 -9.67906802E-02 -1.56985583E-06  4.00995060E-01 -2.96219574E-02 -4.00993155E-01
  2.96024213E-02  1.52351711E-04  4.81356929E-05 -1.83317716E-04 -1.57288954E-06
  2.05810909E-06  2.50365919E-05 -6.25778153E-05 -7.67631471E-01  1.88217003E-04
 -6.58830223E-05  1.93708588E-04  1.44401449E+00 -3.12620794E-04  2.70712882E-06
  6.54351706E-06 -6.34445726E-06  1.03207193E-01  5.96746925E-05  3.49212281E-07
 -1.82028396E-04 -8.60650836E-05  1.58379943E-04 -1.15075248E-05  4.01921371E-01
  1.74594072E-01 -4.01847543E-01 -1.74491689E-01  1.13659253E-03  4.78212920E-02
 -7.66276880E-01  7.86311052E-05  6.18232668E-06 -8.97604013E-03  1.76457073E+00
 -9.45258535E-05  1.44825353E-05 -1.48008545E-02  1.06696882E-01 -7.48267814E-02
 -8.72709988E-06 -4.75148883E-06  3.59560686E-05 -2.54207698E-01 -3.60990218E-01
 -2.54231892E-01 -3.61060762E-01  3.15459260E-01  2.76231749E-01  3.15527914E-01
  2.76182039E-01 -8.51582673E-06 -1.63406880E-05 -9.00594611E-05  5.03856103E-05
  8.23626906E-01  9.83070668E-05  1.43967510E-04 -7.03355569E-05 -1.19349756E+00
 -1.82007382E-05 -2.41552279E-05  3.58435039E-05  8.29005657E-05 -1.94033205E-01
 -3.97941807E-06  7.15871611E-01 -1.44065860E+00 -7.15809963E-01  1.44037241E+00
  5.44999089E-05 -1.93574179E-04 -2.79304263E-04  4.67945121E-04 -3.86928815E-05
  1.86956483E-04 -5.10524473E-04  8.49999488E-01 -5.05312941E-05 -1.44314156E-04
  7.86385488E-04 -1.22399615E+00  7.42563944E-05  1.98585241E-06 -1.09324327E-04
  1.08288403E-04  2.06733615E-01  8.20031140E-05  8.22794732E-07 -9.49127004E-05
 -1.20954440E-04  2.49506150E-04 -7.91339364E-04  7.23644962E-01 -1.39376460E+00
 -7.24735883E-01  1.39525906E+00  6.21473912E-02 -1.85130048E-01  7.42057133E-01
  6.10216043E-04  1.02939526E-04 -2.33515622E-02 -1.15175625E+00 -8.83179723E-04
 -1.25572922E-04  1.68879652E-02  1.51003836E-01 -1.57004224E-01  1.49677863E-04
 -3.64815828E-05  5.33167796E-05 -7.53023727E-02  6.85534484E-01 -7.55316949E-02
  6.85950475E-01  7.93982307E-01 -1.01981436E+00  7.92975761E-01 -1.01783685E+00
  8.25302191E-02 -7.34925418E-01 -4.50131361E-01 -5.82222181E-06 -1.06347231E-05
  1.07564096E+00  4.96840173E-01 -7.71606633E-06  3.62988611E-05  7.17051455E-02
 -1.53722742E-01  1.94428624E-02 -2.75573262E-06  5.30931303E-06 -4.68920308E-05
  8.33895504E-01 -9.13968923E-01  8.33929443E-01 -9.14074162E-01  2.60788100E-01
 -5.51340929E-02  2.60823377E-01 -5.51524079E-02  8.92256731E-02  2.03342911E+00
 -4.20537307E-02 -1.25666448E-05 -4.78526557E-06 -5.29150007E+00 -2.12928130E-01
 -1.43981104E-05  6.81003618E-05  2.38420525E-01  3.51833640E-02  7.30167209E-02
 -1.57880560E-05 -1.38574520E-05 -2.71556734E-05  3.25733329E-01  9.80437959E-01
  3.25692385E-01  9.80453877E-01  1.55643270E-01  1.04827227E+00  1.55729421E-01
  1.04815944E+00  6.17573405E-06  5.71869711E-05 -3.30291774E-07 -1.61548470E-08
 -1.46898099E-06 -1.83066585E-04 -1.94564839E-05  4.02424284E-07 -7.22590636E-07
 -3.53270374E-04  4.22257243E-04 -6.41790439E-05  3.06360427E-06  1.21233750E-05
 -9.99999897E-01  3.37324836E-05  3.29606163E-05  3.98528471E-05  3.06768647E-05
  2.63877039E-05  2.53857960E-05  2.40957662E-05  2.58171696E-05  3.31169974E-02
  3.03351493E-01 -7.11794674E-04  4.39490974E-06 -1.51978366E-06 -9.74406951E-01
 -8.99282863E-02 -1.71630597E-05  2.14643275E-05 -9.71023931E-01  3.33463457E-01
  6.61890283E-01  2.97784094E-05  8.89353586E-05  2.95451960E-04  1.87852973E-01
  1.67999816E-01  1.87843672E-01  1.67993748E-01  1.48097904E-01  1.36151457E-01
  1.48107776E-01  1.36155114E-01 -1.57074491E-03 -5.51744004E-02  1.40546413E-01
 -1.23899939E-04  3.32543436E-05  1.42308715E-01  6.08894257E-01 -3.67576352E-04
  7.11791804E-05  2.13105684E-01 -1.05033448E+00  8.48980611E-01  9.89832593E-04
  2.91569739E-04 -3.81845931E-04 -4.75930824E-01 -6.10675409E-02 -4.76251844E-01
 -6.10255745E-02  4.75945481E-01 -1.16886884E-02  4.77125340E-01 -1.18513467E-02
  2.32635965E-06 -6.70493977E-05  1.38696784E-04  1.51963274E-01 -2.35755755E-04
  9.53979568E-05  5.62036695E-04  4.34046733E-01 -5.13794788E-04  1.56080173E-04
 -9.13039181E-04  7.77384912E-04 -1.12910513E+00 -2.30893269E-03 -4.45569742E-06
 -1.63849129E-03  1.99724321E-04  8.16844214E-04 -3.23082975E-04  6.76214447E-01
 -7.55101458E-02 -6.75310456E-01  7.55054902E-02 -1.84603604E-06  2.19817133E-05
 -2.32055011E-05  2.59948951E-04  1.41931446E-01 -2.01401506E-05 -1.13523262E-04
  7.29826478E-04  3.02319211E-01  4.38150737E-05  2.33576609E-04 -2.87124636E-04
 -2.30606143E-03  1.13594449E+00  1.47017844E-05  6.62602404E-01 -1.52686025E-01
 -6.62406928E-01  1.52699812E-01  1.13900061E-03 -1.46783517E-04 -1.38750353E-03
  1.76212571E-04  4.86267914E-01 -2.94838741E+00  1.34026526E-02 -2.58118722E-06
 -2.87330973E-06 -2.38945675E+00 -7.79878707E-02 -1.17163818E-05  2.16003577E-05
  1.87049782E+00  1.88775589E+00  1.87186766E+00  1.03529383E-05  6.10777448E-06
  3.95434062E-06 -1.21169344E-01  4.88500439E-01 -1.21182717E-01  4.88503218E-01
 -1.39136699E-01  4.74762055E-01 -1.39110251E-01  4.74743706E-01
Alpha Orbital Energies                     R   N=          23
 -1.01672635E+01 -6.92168753E-01 -4.16286338E-01 -3.89332919E-01 -3.59496845E-01
  1.16097455E-01  1.66081429E-01  1.73678813E-01  1.84802146E-01  5.25183810E-01
  5.31764440E-01  5.53416906E-01  8.71762184E-01  8.95523484E-01  9.10515202E-01
  9.55130952E-01  1.07473573E+00  1.66602553E+00  1.69336760E+00  2.22650844E+00
  2.23495228E+00  2.24055833E+00  4.17126721E+00
Total SCF Density                          R   N=         276
  2.04983871E+00 -5.19495407E-02  2.93919137E-01  1.87794344E-03 -4.43173589E-03
  3.93772167E-01  1.41939128E-06 -3.61024574E-06  3.39898235E-06  3.97989218E-01
 -8.99879210E-07  2.44561660E-06  1.56423408E-06 -7.71029703E-07  4.05110971E-01
 -1.70886823E-01  2.71764464E-01 -1.13552712E-02  9.06876917E-07  1.78252471E-06
  2.58807195E-01 -1.92387602E-04 -2.36473547E-03  1.78746593E-01 -1.61793585E-06
 -8.83703283E-07 -5.41420885E-03  8.11401890E-02 -3.12348329E-07 -9.78043713E-08
 -1.45740406E-06  1.92693410E-01  1.00631511E-07  2.06369469E-06 -2.19350848E-06
  9.32958702E-02 -1.04441820E-07  1.18811881E-06 -4.56472596E-07  9.34261476E-08
  2.07329082E-01  8.55771662E-07 -1.02296925E-06  2.87797367E-07  1.06107589E-01
 -2.15071866E-02  4.71195193E-03  7.13291216E-03 -3.56163347E-07  1.66574663E-06
  5.46963767E-03  3.24334335E-03 -1.95218626E-07  8.24931784E-07  4.17219413E-04
 -1.93455716E-02  7.19919309E-04 -2.00564016E-02  6.58114897E-07  5.08402078E-07
  2.18862714E-03 -9.09447983E-03  4.85974353E-07  3.20815999E-07 -1.60919955E-04
  1.20232913E-03 -1.68570846E-02 -4.50516517E-03  1.50627513E-02  2.70511259E-07
 -2.82008089E-06 -3.37687894E-03  6.85230508E-03 -5.49737224E-09 -1.49322988E-06
  3.81595136E-04 -6.08333742E-04  7.93592207E-04 -3.65332272E-07  9.05307800E-07
 -4.20264238E-07 -2.15612578E-02 -8.72409148E-06  6.21033186E-07 -2.02585478E-08
 -1.04392584E-02 -4.49128399E-06  2.81605777E-08 -2.09257965E-08 -3.26495580E-08
  1.16809173E-03 -1.75209602E-07  4.71952978E-07  6.27573144E-07 -7.81384182E-06
  2.55157112E-02  4.00140835E-07  1.84201810E-07 -3.75335914E-06  1.30585182E-02
  1.20435195E-07  6.20227752E-09 -1.61610579E-07 -1.28794328E-07  1.60709442E-03
 -5.62388239E-08  1.80103004E-07 -7.06103426E-06 -4.26681285E-07  2.45653490E-07
  2.96923690E-07 -3.20535972E-06 -2.06528688E-07  1.25743376E-07 -1.26214876E-07
  3.59860478E-07 -2.71546969E-07  2.31148249E-08  1.54713099E-08  1.27257658E-10
 -5.15232071E-02  9.77324582E-02  1.57785264E-01  3.79620722E-05 -2.12063299E-01
  8.95183792E-02  7.15242221E-02  1.74473249E-05 -1.08531019E-01  4.83186812E-03
 -7.54382864E-03  4.86987903E-03  2.67965094E-06 -1.33563785E-02 -2.92385999E-06
  2.08519779E-01 -7.41159295E-03  2.40143081E-02  1.18509923E-01  3.15619335E-05
 -2.02775532E-01  2.02236661E-02  5.37679327E-02  1.42506505E-05 -1.03777543E-01
  2.59475851E-03 -5.96100599E-03  4.19107306E-03  2.66803031E-06 -1.27715285E-02
 -2.23941173E-06  1.62277767E-01  1.39357847E-01 -5.15259118E-02  9.77383351E-02
  1.57801515E-01 -3.64207538E-05  2.12050703E-01  8.95231141E-02  7.15299273E-02
 -1.80703406E-05  1.08523500E-01  4.83394589E-03 -7.54402356E-03  4.86744482E-03
 -2.46767720E-06  1.33562306E-02 -2.66686531E-06 -1.34839830E-02 -5.00049078E-02
  2.08520701E-01 -7.41405299E-03  2.40197437E-02  1.18519048E-01 -3.32417717E-05
  2.02762738E-01  2.02281351E-02  5.37704768E-02 -1.66507953E-05  1.03770224E-01
  2.59662377E-03 -5.96086715E-03  4.18850294E-03 -2.59630313E-06  1.27710972E-02
 -1.99356499E-06 -5.00051289E-02 -6.36290306E-02  1.62273553E-01  1.39350123E-01
 -5.61521540E-02  1.07388266E-01 -1.45253118E-01 -2.14777068E-01 -3.49325611E-05
  1.04152516E-01 -6.60407153E-02 -1.03986319E-01 -1.77118119E-05 -5.33502315E-04
  7.92101954E-03 -6.79772638E-03  1.16359965E-02  1.91286230E-06  2.87115029E-06
 -2.17701774E-02 -3.45293294E-02 -2.17711593E-02 -3.45314079E-02  2.08202968E-01
 -1.35505299E-02  3.59264546E-02 -1.15610134E-01 -1.78537930E-01 -2.98204905E-05
  3.57518277E-02 -5.25158173E-02 -8.64411440E-02 -1.51218313E-05 -1.45961592E-03
  6.01095165E-03 -4.87359848E-03  9.67253225E-03  1.48829547E-06  2.27632998E-06
 -3.44848742E-02 -3.17944765E-02 -3.44869637E-02 -3.17974578E-02  1.51577329E-01
  1.18136506E-01 -5.61486766E-02  1.07380891E-01 -1.45246538E-01  2.14778643E-01
  3.97446370E-05  1.04150146E-01 -6.60411370E-02  1.03990558E-01  2.10334668E-05
 -5.33903303E-04  7.92156346E-03 -6.79728421E-03 -1.16353929E-02 -1.76481334E-06
  2.41061920E-06 -2.17687543E-02 -3.45324833E-02 -2.17709672E-02 -3.45289163E-02
 -2.36114760E-02 -4.11225977E-02  2.08199992E-01 -1.35493352E-02  3.59232223E-02
 -1.15611795E-01  1.78546439E-01  3.86721650E-05  3.57527384E-02 -5.25194077E-02
  8.64474716E-02  2.03694575E-05 -1.46002064E-03  6.01178272E-03 -4.87353523E-03
 -9.67268711E-03 -1.16490834E-06  1.89362891E-06 -3.44889323E-02 -3.18022102E-02
 -3.44853301E-02 -3.17940774E-02 -4.11234966E-02 -4.20501388E-02  1.51583086E-01
  1.18146899E-01
Pure Switching                             I                1
Dipole_Data                                R   N=           3
  9.78696119E-02 -1.85312038E-06 -2.39577090E-05
Quadrupole_Data                            R   N=           6
 -7.75847159E+00  4.28999286E-05 -8.21453138E+00  2.27652234E-05  2.13248712E-05
 -8.81548945E+00
Octapole_Data                              R   N=          10
  3.37217703E-01 -3.02551591E-05 -7.31938348E-01 -2.33700150E-05  3.11770873E-05
 -2.15372221E-04 -1.10399828E-05  5.19934249E-01 -9.65403257E-06 -5.71045194E-05
Hexadecapole_Data                          R   N=          15
 -1.62858608E+01  1.05825927E-04 -4.87315650E+00  4.44207287E-05 -1.49492784E+01
  1.07083099E-04 -1.41971986E-05  1.39288106E-05  2.33948534E-04 -4.83549382E+00
  3.61726806E-05 -5.32872116E+00 -1.15498171E-05 -1.14283091E-04 -1.49407970E+01
