Jobname.Temp
SP        R                             6-31G(d)            
Number of atoms                            I                5
Charge                                     I                0
Multiplicity                               I                1
Number of electrons                        I               10
Number of alpha electrons                  I                5
Number of beta electrons                   I                5
Atomic numbers                             I   N=           5
           6           1           1           1           1
Current cartesian coordinates              R   N=          15
 -5.97342535E-02 -1.30444052E-05  1.56824183E-05  1.43169215E+00  2.15989551E-04
 -1.42976314E+00  1.43177604E+00 -2.02846793E-04  1.42967664E+00 -1.25254855E+00
 -1.68691139E+00 -1.81283479E-04 -1.25251412E+00  1.68697651E+00  1.73690197E-04
Nuclear charges                            R   N=           5
  6.00000000E+00  1.00000000E+00  1.00000000E+00  1.00000000E+00  1.00000000E+00
Number of basis functions                  I               23
Number of contracted shells                I               12
Number of primitive shells                 I               27
Highest angular momentum                   I                2
Largest degree of contraction              I                6
Shell types                                I   N=          12
           0          -1          -1           2           0           0
           0           0           0           0           0           0
Number of primitives per shell             I   N=          12
           6           3           1           1           3           1
           3           1           3           1           3           1
Shell to atom map                          I   N=          12
           1           1           1           1           2           2
           3           3           4           4           5           5
Primitive exponents                        R   N=          27
  3.04752490E+03  4.57369510E+02  1.03948690E+02  2.92101550E+01  9.28666300E+00
  3.16392700E+00  7.86827240E+00  1.88128850E+00  5.44249300E-01  1.68714400E-01
  8.00000000E-01  1.87311370E+01  2.82539370E+00  6.40121700E-01  1.61277800E-01
  1.87311370E+01  2.82539370E+00  6.40121700E-01  1.61277800E-01  1.87311370E+01
  2.82539370E+00  6.40121700E-01  1.61277800E-01  1.87311370E+01  2.82539370E+00
  6.40121700E-01  1.61277800E-01
Contraction coefficients                   R   N=          27
  1.83470016E-03  1.40373012E-02  6.88426061E-02  2.32184421E-01  4.67941342E-01
  3.62312032E-01 -1.19332409E-01 -1.60854212E-01  1.14345648E+00  1.00000000E+00
  1.00000000E+00  3.34945995E-02  2.34726947E-01  8.13757318E-01  1.00000000E+00
  3.34945995E-02  2.34726947E-01  8.13757318E-01  1.00000000E+00  3.34945995E-02
  2.34726947E-01  8.13757318E-01  1.00000000E+00  3.34945995E-02  2.34726947E-01
  8.13757318E-01  1.00000000E+00
P(S=P) Contraction coefficients            R   N=          27
  0.00000000E+00  0.00000000E+00  0.00000000E+00  0.00000000E+00  0.00000000E+00
  0.00000000E+00  6.89990956E-02  3.16423980E-01  7.44308252E-01  1.00000000E+00
  0.00000000E+00  0.00000000E+00  0.00000000E+00  0.00000000E+00  0.00000000E+00
  0.00000000E+00  0.00000000E+00  0.00000000E+00  0.00000000E+00  0.00000000E+00
  0.00000000E+00  0.00000000E+00  0.00000000E+00  0.00000000E+00  0.00000000E+00
  0.00000000E+00  0.00000000E+00
Coordinates of each shell                  R   N=          36
 -5.97342535E-02 -1.30444052E-05  1.56824183E-05 -5.97342535E-02 -1.30444052E-05
  1.56824183E-05 -5.97342535E-02 -1.30444052E-05  1.56824183E-05 -5.97342535E-02
 -1.30444052E-05  1.56824183E-05  1.43169215E+00  2.15989551E-04 -1.42976314E+00
  1.43169215E+00  2.15989551E-04 -1.42976314E+00  1.43177604E+00 -2.02846793E-04
  1.42967664E+00  1.43177604E+00 -2.02846793E-04  1.42967664E+00 -1.25254855E+00
 -1.68691139E+00 -1.81283479E-04 -1.25254855E+00 -1.68691139E+00 -1.81283479E-04
 -1.25251412E+00  1.68697651E+00  1.73690197E-04 -1.25251412E+00  1.68697651E+00
  1.73690197E-04
Overlap Matrix                             R   N=         276
  1.00000000E+00  2.19058872E-01  1.00000000E+00  4.33131214E-18 -7.23490237E-18
  1.00000000E+00 -4.32545516E-22 -1.14648647E-21  3.93696436E-38  1.00000000E+00
 -1.90471134E-21  5.50498591E-22 -3.52270857E-39 -3.56448817E-42  1.00000000E+00
  1.84261053E-01  8.12273068E-01 -5.55975306E-18 -1.45803671E-21  2.91607341E-21
  1.00000000E+00  5.99016598E-19 -5.21268438E-18  5.69754058E-01  8.31121996E-39
 -1.66224399E-38  0.00000000E+00  1.00000000E+00  8.87183297E-23 -1.24713194E-21
  8.31121996E-39  5.69754058E-01 -4.05821287E-42  0.00000000E+00  0.00000000E+00
  1.00000000E+00  0.00000000E+00  2.49426387E-21 -1.66224399E-38 -4.05821287E-42
  5.69754058E-01  0.00000000E+00  0.00000000E+00  0.00000000E+00  1.00000000E+00
  7.91027073E-02  7.10235064E-01 -1.49032265E-17 -1.24360589E-21  0.00000000E+00
  6.29936196E-01  0.00000000E+00  0.00000000E+00  0.00000000E+00  1.00000000E+00
  7.91027073E-02  7.10235064E-01 -4.96774216E-18 -3.73081766E-21  0.00000000E+00
  6.29936196E-01  0.00000000E+00  0.00000000E+00  0.00000000E+00  3.33333333E-01
  1.00000000E+00  7.91027073E-02  7.10235064E-01 -4.96774216E-18 -1.24360589E-21
  0.00000000E+00  6.29936196E-01  0.00000000E+00  0.00000000E+00  0.00000000E+00
  3.33333333E-01  3.33333333E-01  1.00000000E+00  1.98040877E-38  4.18390033E-38
 -2.15398858E-21 -8.60438182E-18  0.00000000E+00  0.00000000E+00  0.00000000E+00
  0.00000000E+00  0.00000000E+00  6.51525101E-38  6.51525101E-38  2.17175034E-38
  1.00000000E+00 -2.54804888E-41  0.00000000E+00  0.00000000E+00  0.00000000E+00
 -8.60438182E-18  0.00000000E+00  0.00000000E+00  0.00000000E+00  0.00000000E+00
  0.00000000E+00  0.00000000E+00  0.00000000E+00  0.00000000E+00  1.00000000E+00
 -6.22082245E-45  0.00000000E+00  0.00000000E+00  0.00000000E+00 -2.15398858E-21
  0.00000000E+00  0.00000000E+00  0.00000000E+00  0.00000000E+00  0.00000000E+00
  0.00000000E+00  0.00000000E+00  0.00000000E+00  3.76158192E-38  1.00000000E+00
  3.22654588E-02  2.71604305E-01  2.65105059E-01  4.07114025E-05 -2.54147036E-01
  3.75715315E-01  3.71585349E-01  5.70632668E-05 -3.56226001E-01  2.92094040E-01
  1.16515988E-01  2.77879111E-01  4.67012937E-05 -2.91539830E-01 -4.47709124E-05
  1.00000000E+00  9.18319546E-02  4.74640908E-01  1.91791766E-01  2.94528962E-05
 -1.83864122E-01  7.03030507E-01  4.20971781E-01  6.46473956E-05 -4.03571063E-01
  3.92213364E-01  3.50073499E-01  3.88801690E-01  1.12086118E-05 -6.99714400E-02
 -1.07453078E-05  6.58292049E-01  1.00000000E+00  3.22670405E-02  2.71611275E-01
  2.65127754E-01 -3.37388758E-05  2.54133544E-01  3.75719756E-01  3.71610659E-01
 -4.72893753E-05  3.56200859E-01  2.92123644E-01  1.16519656E-01  2.77861856E-01
 -3.87052987E-05  2.91542456E-01 -3.71002831E-05  5.20947405E-02  2.25005434E-01
  1.00000000E+00  9.18331960E-02  4.74645936E-01  1.91804673E-01 -2.44081351E-05
  1.83850995E-01  7.03035538E-01  4.20998475E-01 -5.35742300E-05  4.03540682E-01
  3.92222674E-01  3.50077577E-01  3.88799834E-01 -9.28930263E-06  6.99704227E-02
 -8.90409761E-06  2.25005434E-01  5.17194854E-01  6.58292049E-01  1.00000000E+00
  3.22688893E-02  2.71619422E-01 -2.12039453E-01 -2.99869813E-01 -3.50134476E-05
  3.75724947E-01 -2.97194497E-01 -4.20297530E-01 -4.90748482E-05  2.28840921E-01
  3.41159013E-01  1.16523946E-01  2.75119968E-01  3.21236022E-05  4.54297464E-05
  1.42759638E-02  1.34666203E-01  1.42767725E-02  1.34669257E-01  1.00000000E+00
  9.18346470E-02  4.74651812E-01 -1.53395060E-01 -2.16933911E-01 -2.53296724E-05
  7.03041419E-01 -3.36690402E-01 -4.76153313E-01 -5.55966902E-05  3.77037765E-01
  4.03993455E-01  3.50082343E-01  6.60271947E-02  7.70947799E-06  1.09028754E-05
  1.34666203E-01  3.77061207E-01  1.34669257E-01  3.77066476E-01  6.58292049E-01
  1.00000000E+00  3.22647783E-02  2.71601305E-01 -2.12017155E-01  2.99863149E-01
  2.80859534E-05  3.75713404E-01 -2.97176756E-01  4.20307300E-01  3.93670622E-05
  2.28814624E-01  3.41153216E-01  1.16514407E-01 -2.75101732E-01 -2.57667354E-05
  3.64427795E-05  1.42778659E-02  1.34673387E-01  1.42749590E-02  1.34662407E-01
  1.80244188E-02  1.47824615E-01  1.00000000E+00  9.18314205E-02  4.74638745E-01
 -1.53386227E-01  2.16939413E-01  2.03191031E-05  7.03028343E-01 -3.36674419E-01
  4.76170203E-01  4.45993252E-05  3.77024794E-01  4.03987054E-01  3.50071744E-01
 -6.60268595E-02 -6.18424539E-06  8.74659080E-06  1.34673387E-01  3.77073599E-01
  1.34662407E-01  3.77054660E-01  1.47824615E-01  3.99347926E-01  6.58292049E-01
  1.00000000E+00
Core Hamiltonian Matrix                    R   N=         276
 -1.98812393E+01 -4.08454889E+00 -6.71945104E+00 -6.42292592E-03 -4.54197160E-02
 -6.03096849E+00  3.52992421E-08 -3.84329264E-07 -5.96468863E-06 -5.99175731E+00
  1.21763489E-06  8.81710323E-06 -2.12574743E-06 -3.19398405E-10 -5.95253197E+00
 -3.51967449E+00 -5.37815133E+00 -4.25780277E-02 -1.51274035E-06  8.64104454E-06
 -5.44218443E+00 -1.07900946E-03 -3.02574205E-02 -3.10325535E+00 -3.99195208E-06
 -1.36658623E-06 -4.86125357E-02 -3.80886949E+00  5.92529302E-09 -1.32372435E-06
 -3.99195208E-06 -3.06984377E+00 -2.02378667E-10 -5.41771888E-06 -3.52941940E-06
 -3.75556294E+00  2.04556229E-07  6.22168203E-06 -1.36658623E-06 -2.02378667E-10
 -3.03642078E+00  1.10684947E-05 -1.02224362E-06 -1.41201901E-10 -3.70223991E+00
 -1.50322958E+00 -4.45016057E+00 -7.97333019E-02  2.17125005E-06  1.21676790E-06
 -3.80750309E+00 -6.39761256E-02  1.34291575E-06  7.04221436E-07 -4.80930818E+00
 -1.50214056E+00 -4.41659256E+00  4.58582873E-02 -2.04650352E-06  4.42048783E-06
 -3.77186699E+00  4.86155888E-02 -3.61757637E-06  3.48195922E-06 -2.32060595E+00
 -4.76815244E+00 -1.50105113E+00 -4.38301233E+00 -7.27578050E-02 -1.40276205E-06
  1.51852849E-05 -3.73621831E+00 -6.59148126E-02 -1.48896051E-06  1.25938224E-05
 -2.31641946E+00 -2.26874206E+00 -4.68347355E+00 -3.21982501E-07 -9.12793411E-06
  3.76071541E-06  7.94288835E-02  2.56270061E-05 -8.53899808E-06  2.32599830E-06
  8.42046698E-02  2.47442907E-05 -1.19960308E-05 -9.02289869E-06 -2.87234406E-06
 -3.76181784E+00 -1.16553915E-07 -3.26768321E-06  2.10750383E-06  2.56270061E-05
 -1.26020215E-01 -2.99946785E-06  1.21974731E-06  2.47442907E-05 -1.14167804E-01
 -8.42789850E-06 -1.67985215E-06  1.56816360E-06  6.20740872E-06 -3.74925839E+00
 -1.76076185E-11 -4.91744922E-10  2.56270061E-05  7.65650952E-06 -2.42965515E-06
 -4.48371745E-10  2.47442907E-05  6.03093028E-06 -2.57895525E-06  3.58384910E-06
 -1.27236159E-05  9.13848245E-06 -2.90958927E-06 -4.97504585E-06 -3.60622617E+00
 -6.20358438E-01 -1.74933473E+00 -1.50980665E+00 -2.30653443E-04  1.43245727E+00
 -2.00246032E+00 -1.66670111E+00 -2.54766230E-04  1.58212551E+00 -1.66708431E+00
 -8.11007300E-01 -1.58055619E+00 -2.25063738E-04  1.39774132E+00  2.14922914E-04
 -4.08460036E+00 -1.75602526E+00 -3.10037118E+00 -1.07421102E+00 -1.61669611E-04
  9.89971400E-01 -3.53271157E+00 -1.56873626E+00 -2.37849266E-04  1.44637439E+00
 -2.34883479E+00 -2.09521559E+00 -2.28989658E+00 -6.13443459E-05  3.64697090E-01
  5.85485384E-05 -2.98791519E+00 -3.93546126E+00 -6.20388630E-01 -1.74938102E+00
 -1.50993619E+00  1.89871722E-04 -1.43237952E+00 -2.00249140E+00 -1.66681757E+00
  2.09633723E-04 -1.58201453E+00 -1.66723254E+00 -8.11031630E-01 -1.58047758E+00
  1.84712775E-04 -1.39774909E+00  1.77100223E-04 -3.56216303E-01 -1.19486618E+00
 -4.08462430E+00 -1.75604888E+00 -3.10040245E+00 -1.07428196E+00  1.30525162E-04
 -9.89891412E-01 -3.53273675E+00 -1.56883319E+00  1.89391325E-04 -1.44625142E+00
 -2.34888569E+00 -2.09523742E+00 -2.28988693E+00  4.41487485E-05 -3.64692348E-01
  4.79738394E-05 -1.19486136E+00 -2.39472278E+00 -2.98792978E+00 -3.93547298E+00
 -6.19753256E-01 -1.73360335E+00  1.18693610E+00  1.68245256E+00  1.97244116E-04
 -1.98105500E+00  1.30896201E+00  1.85421178E+00  2.17228765E-04 -1.33886078E+00
 -1.87380317E+00 -8.04324265E-01 -1.30366575E+00 -1.53039248E-04 -2.16864041E-04
 -1.20707981E-01 -7.65374767E-01 -1.20714306E-01 -7.65390392E-01 -4.03133729E+00
 -1.75551709E+00 -3.08419717E+00  8.14305330E-01  1.17452605E+00  1.40974644E-04
 -3.50472289E+00  1.19435064E+00  1.71424254E+00  2.05130260E-04 -2.24144890E+00
 -2.37454581E+00 -2.07447989E+00 -3.40838963E-01 -4.20952349E-05 -5.90664337E-05
 -7.71312271E-01 -1.87069904E+00 -7.71331625E-01 -1.87072235E+00 -2.95290609E+00
 -3.88774223E+00 -6.19674600E-01 -1.73347934E+00  1.18680615E+00 -1.68240926E+00
 -1.56019709E-04 -1.98096899E+00  1.30887262E+00 -1.85424053E+00 -1.72155293E-04
 -1.33871671E+00 -1.87375831E+00 -8.04259303E-01  1.30358084E+00  1.21245875E-04
 -1.71586404E-04 -1.20718854E-01 -7.65394585E-01 -1.20699686E-01 -7.65343557E-01
 -1.45406364E-01 -8.26264017E-01 -4.03126140E+00 -1.75545548E+00 -3.08411040E+00
  8.14255687E-01 -1.17455613E+00 -1.04317667E-04 -3.50464875E+00  1.19429136E+00
 -1.71430862E+00 -1.52591972E-04 -2.24137313E+00 -2.37450380E+00 -2.07441901E+00
  3.40827014E-01  3.12257531E-05 -4.46099947E-05 -7.71343217E-01 -1.87073084E+00
 -7.71295495E-01 -1.87066504E+00 -8.26275525E-01 -1.94143414E+00 -2.95285918E+00
 -3.88769879E+00
Number of independent functions            I               23
Alpha MO coefficients                      R   N=         529
  9.92782574E-01  4.96795059E-02  2.01558362E-04 -4.39193425E-09 -3.53091630E-08
 -1.40697049E-02 -6.49968795E-04 -7.57406026E-08  1.33520181E-07 -9.35095437E-03
 -9.34477098E-03 -9.44240865E-03  4.15377080E-08  2.12745278E-08  8.64147629E-09
 -1.39678719E-04  2.55350049E-03 -1.39713412E-04  2.55347434E-03 -2.26000617E-04
  2.37412062E-03 -2.25936244E-04  2.37408614E-03  1.97246447E-01 -3.78555765E-01
 -3.15269308E-02  1.78623363E-06  3.79898478E-06 -3.54454516E-01 -1.30788613E-02
 -1.09944145E-06  2.03196901E-06 -1.04390808E-02 -4.15735164E-04  5.37540917E-03
 -1.00563431E-06 -1.79935020E-07  2.45246579E-07 -1.42934681E-01 -4.10736122E-02
 -1.42936240E-01 -4.10742772E-02 -1.28572225E-01 -3.82120312E-02 -1.28566014E-01
 -3.82099090E-02  1.68282263E-02 -3.38329194E-02  4.41141526E-01  5.88717502E-05
  1.19397491E-05 -4.55153776E-02  1.95566075E-01  2.50521954E-05  4.87187679E-06
  1.03270843E-02 -2.27608658E-02  1.54393861E-02 -3.58386676E-06  7.07820758E-07
 -5.35527745E-06  1.71470570E-01  1.29042941E-01  1.71493854E-01  1.29059279E-01
 -1.71421066E-01 -1.29233308E-01 -1.71352573E-01 -1.29185061E-01 -1.41636811E-06
  1.94204602E-06 -5.42971388E-05  4.46102259E-01  2.62719842E-06  8.50890080E-06
 -2.74632503E-05  2.16610680E-01  1.95443850E-06 -1.85233839E-06  3.93761938E-06
 -1.80645097E-06 -2.36160011E-02 -5.88323506E-06 -7.72043104E-07  6.01062942E-06
  6.15596968E-06 -4.94330540E-05 -4.26488593E-05 -2.41001707E-01 -1.99213052E-01
  2.41050646E-01  1.99257793E-01  3.05642050E-06 -6.83401399E-06  9.52029896E-06
  3.62792687E-06 -4.52352275E-01 -6.49364205E-06  6.09782887E-06  1.12354349E-06
 -2.37292724E-01 -1.15361742E-06 -9.37135535E-07  2.85253831E-06  6.90213376E-06
 -2.88295270E-02 -1.85598895E-07  2.33448660E-01  2.35007191E-01 -2.33431512E-01
 -2.34989875E-01  2.15889288E-05  1.95836418E-05 -3.42401965E-05 -3.34578790E-05
 -1.62294446E-01  1.98287109E-01  2.67823500E-02  1.87291341E-05 -5.96220355E-06
  2.56580794E+00  1.53835106E-01  5.71008858E-05 -2.87239088E-05 -9.72072059E-03
 -1.42376805E-02 -1.23943424E-02  8.30443966E-07 -2.62037038E-07 -6.65116140E-07
 -1.64087157E-02 -1.00042110E+00 -1.64127353E-02 -1.00042795E+00 -2.98990806E-02
 -9.44872842E-01 -2.99063205E-02 -9.44945462E-01 -1.80141122E-06  5.76579079E-06
 -3.90105123E-05  9.18254675E-05  3.68935347E-01  8.31793638E-06 -1.24628540E-04
  3.41155197E-04  1.17079262E+00 -1.49754915E-06 -1.25181799E-06  2.36284678E-06
  1.34391077E-05 -2.53929897E-02 -8.08425119E-07  1.41336140E-01  1.43312523E+00
 -1.41327097E-01 -1.43288455E+00  3.38995068E-05  4.36693388E-04 -5.97738523E-05
 -6.61506434E-04 -3.44959096E-06 -9.29091562E-07  1.20676373E-04 -3.76845462E-01
  9.54356694E-05  1.34203837E-04  4.12799092E-04 -1.36966025E+00  2.98623902E-04
 -1.85712603E-06  3.81836770E-06 -3.14512355E-06 -2.36163311E-02 -1.13680565E-05
  1.82387217E-08  3.20100618E-05  2.02545793E-04 -6.15506668E-05 -9.27688248E-04
 -1.06490409E-01 -1.52858067E+00  1.06531324E-01  1.52913015E+00 -8.15325179E-03
  2.85079933E-02 -4.01973658E-01 -1.07076148E-04 -3.49466143E-05  1.00133919E-02
 -1.52001104E+00 -4.34550423E-04 -1.28087773E-04  1.20515143E-03 -9.83952496E-03
  8.17736820E-03 -6.57603010E-06  2.77935567E-06 -2.34308523E-06  3.44984378E-02
  1.15587248E+00  3.45216143E-02  1.15626433E+00 -5.80868292E-02 -1.15091126E+00
 -5.80333126E-02 -1.14989933E+00 -1.61415732E-07 -1.81484554E-05  4.06015997E-06
 -2.69759545E-04 -7.80585173E-01  1.88216142E-05  1.95808048E-05  4.90100388E-04
  1.17350476E+00 -6.80116033E-06 -2.53521559E-06  5.61264081E-06  6.03685114E-05
 -9.52829769E-02 -1.23788232E-06  3.98374433E-01 -7.83406541E-02 -3.98373270E-01
  7.83223486E-02  1.74853939E-04  5.82121423E-05 -2.03100957E-04 -1.27609058E-05
  2.14190972E-06  2.51321617E-05 -4.12547381E-05 -7.68814632E-01  2.71242899E-04
 -6.66996794E-05  1.50273327E-04  1.44099767E+00 -4.24529020E-04  3.65199151E-06
  3.26328095E-06 -3.91179459E-06  1.03584200E-01  5.90582544E-05  1.41712990E-06
 -1.93582930E-04 -5.40038547E-05  1.88194765E-04 -3.20114154E-05  4.01205374E-01
  1.71492897E-01 -4.01148588E-01 -1.71401917E-01  1.32872054E-03  5.63524329E-02
 -7.68675522E-01  5.70427380E-05  4.80066824E-07 -4.10077531E-03  1.86296494E+00
 -5.15084927E-05  2.54217883E-05 -2.17135780E-02  1.11838343E-01 -6.94319683E-02
 -4.99785833E-06 -3.12899967E-06  2.51650399E-05 -2.46433315E-01 -4.26089265E-01
 -2.46455390E-01 -4.26157725E-01  3.21437108E-01  3.18563247E-01  3.21481339E-01
  3.18494535E-01  8.97587348E-06  2.27855346E-05  8.00040706E-05 -4.62520423E-05
 -8.10981941E-01 -1.15011991E-04 -1.33664244E-04  6.35302823E-05  1.17705269E+00
  1.64910931E-05  2.03118075E-05 -2.87371875E-05 -6.17423126E-05  1.89750240E-01
  3.31884061E-06 -7.16960783E-01  1.46364861E+00  7.16926943E-01 -1.46340280E+00
 -2.49581398E-05  1.40552707E-04  2.29511337E-04 -3.65399520E-04  5.99973616E-05
 -1.80575252E-04  5.74414214E-04 -8.49601153E-01  4.60365796E-05 -1.58017740E-05
 -9.37230811E-04  1.22430772E+00 -6.82003644E-05  2.20344560E-05  1.21572033E-04
 -1.28096152E-04 -2.07748874E-01 -6.01232376E-05 -2.96692252E-06  1.40506669E-04
  2.53093431E-04 -1.25438455E-04  7.74927150E-04 -7.22967724E-01  1.39391630E+00
  7.24354011E-01 -1.39562256E+00 -7.94262566E-02  1.44939803E-01 -6.62653852E-01
 -7.38304680E-04 -9.28978871E-05  2.29676168E-01  1.10575553E+00  1.07460301E-03
  1.06260685E-04 -5.16418139E-02 -1.29937735E-01  1.50928892E-01 -1.80796106E-04
  3.05022636E-05 -2.98326263E-05 -7.30332196E-02 -6.03367938E-01 -7.28310794E-02
 -6.03727945E-01 -8.27940581E-01  9.43570328E-01 -8.26723569E-01  9.41169125E-01
 -7.23455854E-02  6.68855464E-01  5.63866579E-01  3.44401142E-05  1.78068191E-05
 -9.98494362E-01 -6.25667140E-01 -3.16461668E-05 -4.14814193E-05 -1.05015832E-01
  1.85381552E-01 -2.29110442E-02  1.20666395E-05 -5.77213311E-06  3.94907343E-05
 -8.39359082E-01  9.68933190E-01 -8.39405443E-01  9.69054127E-01 -1.27977649E-01
 -9.23128338E-02 -1.28061873E-01 -9.22021495E-02  7.80690846E-02  2.02942368E+00
 -7.53339555E-02 -2.20477570E-05 -6.44795837E-06 -5.18028991E+00 -2.07189310E-01
 -2.14498858E-06  6.32538177E-05  2.62786168E-01  2.18407807E-02  6.45182443E-02
 -1.99818386E-05 -1.24819685E-05 -2.12177060E-05  2.98049230E-01  9.30210799E-01
  2.98014595E-01  9.30224362E-01  6.94530040E-02  1.08903567E+00  6.95544828E-02
  1.08889760E+00 -3.29309143E-06 -2.94725858E-05  4.54194463E-07  2.24637000E-07
  1.44968166E-06  9.52651273E-05  1.38378578E-05 -9.54810975E-08  6.56391272E-07
  1.89438480E-04 -2.65650586E-04  7.35379613E-05 -1.45582647E-05 -8.99762855E-06
  9.99999963E-01 -1.80422434E-05 -1.78265323E-05 -2.42105886E-05 -1.54588628E-05
 -1.29425503E-05 -1.25491580E-05 -1.16410582E-05 -1.28337118E-05  4.25277133E-02
  3.71598017E-01 -2.01543138E-03  5.16726467E-06 -1.50960590E-06 -1.21064006E+00
 -1.37451417E-01 -2.42187882E-05  2.63823638E-05 -9.50562363E-01  2.56357078E-01
  7.25248949E-01  3.62545669E-05  7.36251725E-05  1.30522701E-04  2.47381435E-01
  2.07238147E-01  2.47367422E-01  2.07231236E-01  1.92737407E-01  1.61475652E-01
  1.92754033E-01  1.61482457E-01  5.12127216E-06  4.36308386E-05 -9.90798351E-05
  2.04150569E-04 -1.33832239E-01 -1.62092657E-04 -4.68785960E-04  5.95678239E-04
 -2.72029756E-01 -2.72329282E-04  7.17006180E-04 -4.44738170E-04 -1.25163218E-03
 -1.13288191E+00 -1.09299959E-05 -6.49647000E-01  1.62606927E-01  6.50322823E-01
 -1.62462713E-01  5.38008188E-04 -8.32794922E-05 -1.12668708E-03  6.43822287E-05
 -4.01848925E-03 -7.63724055E-02  1.38759520E-01 -2.73591464E-04 -8.68666203E-05
  2.14939543E-01  6.76510683E-01 -7.87005790E-04 -1.75190271E-04  2.98739067E-01
 -1.07422361E+00  7.86017197E-01  2.07689323E-03 -7.35220322E-04 -2.66154511E-04
 -4.92742478E-01 -9.70428559E-02 -4.91894977E-01 -9.72877537E-02  4.69576095E-01
 -1.38512648E-03  4.72066902E-01 -1.69967249E-03  3.41984613E-06  1.58637035E-04
 -2.71338579E-04 -1.52869761E-01 -1.86544313E-04 -3.62483693E-04 -1.27804625E-03
 -4.34669650E-01 -3.65188071E-04 -5.12740822E-04  1.96861203E-03 -1.48592246E-03
  1.12887347E+00 -1.26431932E-03  1.74400665E-05  8.84404877E-05  4.12088838E-04
  1.70980564E-03 -3.60738395E-05 -6.77435515E-01  7.56574232E-02  6.75627770E-01
 -7.56699504E-02 -4.84610179E-01  2.95906479E+00 -1.60939516E-02  2.64470816E-06
  2.89537694E-06  2.34042063E+00  8.98164778E-02  1.20507728E-05 -2.02731725E-05
 -1.86726295E+00 -1.88611162E+00 -1.86961978E+00 -1.07734876E-05 -5.98021717E-06
 -2.85183461E-06  1.21956264E-01 -4.74035702E-01  1.21968940E-01 -4.74038609E-01
  1.42872806E-01 -4.66575161E-01  1.42846060E-01 -4.66558051E-01
Alpha Orbital Energies                     R   N=          23
 -1.01674969E+01 -6.93857872E-01 -4.25760038E-01 -3.89461224E-01 -3.48370343E-01
  1.14623519E-01  1.63225983E-01  1.72674794E-01  1.85225757E-01  5.25878200E-01
  5.31205789E-01  5.59989751E-01  8.64535032E-01  8.94718233E-01  9.05977467E-01
  9.57952958E-01  1.05459619E+00  1.66920347E+00  1.72859349E+00  2.22267903E+00
  2.22839893E+00  2.23173070E+00  4.16498688E+00
Total SCF Density                          R   N=         276
  2.04961318E+00 -5.18343603E-02  2.93834375E-01  2.81031620E-03 -5.96078230E-03
  3.91199674E-01  1.41368243E-06 -3.60376817E-06  3.38483330E-06  3.98014457E-01
 -9.34751512E-07  2.49509715E-06  1.68134033E-06 -9.36784244E-07  4.09245161E-01
 -1.69297990E-01  2.70043486E-01 -1.78133931E-02  9.66339162E-07  2.09584679E-06
  2.55815221E-01  1.31987240E-04 -3.39556629E-03  1.73369047E-01 -1.52287559E-06
 -9.46184966E-07 -8.51251544E-03  7.68351392E-02 -3.54535764E-07 -2.89830684E-08
 -1.35023808E-06  1.93261030E-01  1.22273459E-07  2.18723799E-06 -2.07007658E-06
  9.38403750E-02 -2.19857785E-07  1.38851082E-06 -3.48102932E-07  2.25784456E-08
  2.14679807E-01  1.19409230E-06 -1.04182580E-06  3.13726731E-07  1.12615674E-01
 -2.23374993E-02  6.27565605E-03  9.76586646E-03 -4.73937132E-07  1.21162332E-06
  6.72340671E-03  4.32447301E-03 -2.60672073E-07  6.03186504E-07  6.06126861E-04
 -1.94847062E-02  9.26403781E-04 -2.00590799E-02  8.31807869E-07  3.01834585E-07
  2.62961364E-03 -8.87948430E-03  5.67769116E-07  2.18805059E-07 -2.86661932E-04
  1.21110922E-03 -1.61083218E-02 -6.05269172E-03  1.32791622E-02  2.25470760E-07
 -2.17052009E-06 -4.95043135E-03  5.91050649E-03 -1.93952505E-08 -1.18401884E-06
  3.83250087E-04 -5.30822809E-04  7.12857517E-04 -3.67919911E-07  9.16188764E-07
 -5.33865025E-07 -2.10703033E-02 -6.36857288E-06  6.35994431E-07 -7.82859270E-08
 -1.02309563E-02 -3.36800328E-06  3.36708991E-08 -2.27909290E-08 -3.68995554E-08
  1.11543114E-03 -1.81132039E-07  4.84469340E-07  8.75598860E-08 -5.45814903E-06
  2.60822043E-02  4.36842588E-07 -6.97414095E-08 -2.61348970E-06  1.36820740E-02
  8.45165720E-08  2.15187895E-08 -1.44932984E-07 -1.20098242E-07  1.66228333E-03
 -6.63323428E-08  1.77548475E-07 -4.74025049E-06 -6.89451364E-07  1.67782089E-07
  3.13383542E-07 -2.10100737E-06 -3.34734844E-07  8.80283352E-08 -1.15887425E-07
  2.43410350E-07 -1.62889253E-07  3.65004722E-08  1.07028719E-08  5.87394293E-11
 -5.08915390E-02  9.65977258E-02  1.60302550E-01  2.67354970E-05 -2.11199056E-01
  8.57194893E-02  7.08095270E-02  1.20342588E-05 -1.10790247E-01  6.52786905E-03
 -7.68461831E-03  3.76210552E-03  1.99710678E-06 -1.34601348E-02 -1.99332076E-06
  2.08661552E-01 -6.78854243E-03  2.26160078E-02  1.16447753E-01  2.22447727E-05
 -2.12609306E-01  1.72956723E-02  5.15467813E-02  9.75052634E-06 -1.11529902E-01
  3.47451859E-03 -5.88827079E-03  3.49623094E-03  2.11122015E-06 -1.35500949E-02
 -1.48946735E-06  1.65719335E-01  1.47148045E-01 -5.08942931E-02  9.66037084E-02
  1.60314307E-01 -2.61164862E-05  2.11189560E-01  8.57245387E-02  7.08129837E-02
 -1.30330796E-05  1.10784289E-01  6.52946055E-03 -7.68480163E-03  3.76014498E-03
 -1.82927960E-06  1.34597350E-02 -1.82018041E-06 -9.31511993E-03 -5.37149246E-02
  2.08662407E-01 -6.79117967E-03  2.26218269E-02  1.16453266E-01 -2.47074247E-05
  2.12599178E-01  1.73007603E-02  5.15474600E-02 -1.24480723E-05  1.11523866E-01
  3.47595500E-03 -5.88813299E-03  3.49404760E-03 -2.07171106E-06  1.35494920E-02
 -1.31510544E-06 -5.37152431E-02 -7.37530652E-02  1.65715126E-01  1.47140314E-01
 -5.69383103E-02  1.08919473E-01 -1.43108846E-01 -2.15043455E-01 -2.58682417E-05
  1.06752858E-01 -6.36716023E-02 -1.04415394E-01 -1.33806920E-05 -8.51088492E-04
  7.91261363E-03 -6.67038987E-03  1.13844808E-02  1.39453107E-06  2.14506644E-06
 -2.20252306E-02 -3.36734799E-02 -2.20262469E-02 -3.36756798E-02  2.07995747E-01
 -1.47093739E-02  3.79105659E-02 -1.11588350E-01 -1.77754137E-01 -2.21406823E-05
  3.87828629E-02 -4.95399056E-02 -8.63097407E-02 -1.14866856E-05 -1.91507217E-03
  5.86875599E-03 -4.44549145E-03  9.41023493E-03  1.04576450E-06  1.67305358E-06
 -3.33896834E-02 -3.01954032E-02 -3.33917786E-02 -3.01985389E-02  1.50152933E-01
  1.15705768E-01 -5.69347930E-02  1.08912015E-01 -1.43101156E-01  2.15045840E-01
  2.71751991E-05  1.06750423E-01 -6.36714531E-02  1.04419986E-01  1.49999744E-05
 -8.51590413E-04  7.91328571E-03 -6.66995125E-03 -1.13838184E-02 -1.05837425E-06
  1.40002622E-06 -2.20237885E-02 -3.36766181E-02 -2.20261242E-02 -3.36733897E-02
 -2.43802152E-02 -4.19274870E-02  2.07992781E-01 -1.47081105E-02  3.79072395E-02
 -1.11589189E-01  1.77763356E-01  2.79411151E-05  3.87837493E-02 -4.95429776E-02
  8.63163431E-02  1.52441006E-05 -1.91559542E-03  5.86969676E-03 -4.44541813E-03
 -9.41034198E-03 -5.84439331E-07  1.05728423E-06 -3.33937192E-02 -3.02031503E-02
 -3.33904694E-02 -3.01953203E-02 -4.19284633E-02 -4.30680526E-02  1.50158746E-01
  1.15716165E-01
Pure Switching                             I                1
Dipole_Data                                R   N=           3
  1.36134027E-01 -2.08761140E-06 -2.58514557E-05
Quadrupole_Data                            R   N=           6
 -7.58653176E+00  4.26092007E-05 -8.20351013E+00  2.29641947E-05  2.28401685E-05
 -9.02500840E+00
Octapole_Data                              R   N=          10
  4.62196489E-01 -3.51304738E-05 -7.51661999E-01 -1.57026121E-05  1.25454566E-05
 -1.42081602E-04 -1.93617326E-05  4.32916828E-01 -1.19047222E-05 -3.72519122E-05
Hexadecapole_Data                          R   N=          15
 -1.64305174E+01  1.11309723E-04 -4.89489263E+00  4.07454968E-05 -1.49081807E+01
  8.91982993E-05 -8.79137424E-06  2.19916643E-05  1.68086567E-04 -4.89417098E+00
  3.40012233E-05 -5.28628860E+00 -7.54059407E-08 -5.12744366E-05 -1.48858929E+01
