Jobname.Temp
SP        R                             6-31G(d)            
Number of atoms                            I                5
Charge                                     I                0
Multiplicity                               I                1
Number of electrons                        I               10
Number of alpha electrons                  I                5
Number of beta electrons                   I                5
Atomic numbers                             I   N=           5
           6           1           1           1           1
Current cartesian coordinates              R   N=          15
 -1.62904018E-05 -1.26589112E-05  3.32667373E-02  1.79294979E+00 -5.95540747E-04
  1.05985942E+00 -1.79310622E+00  5.45128993E-04  1.05960083E+00 -4.79110442E-04
 -1.68688066E+00 -1.15959039E+00  7.33278192E-04  1.68700703E+00 -1.15947028E+00
Nuclear charges                            R   N=           5
  6.00000000E+00  1.00000000E+00  1.00000000E+00  1.00000000E+00  1.00000000E+00
Number of basis functions                  I               23
Number of contracted shells                I               12
Number of primitive shells                 I               27
Highest angular momentum                   I                2
Largest degree of contraction              I                6
Shell types                                I   N=          12
           0          -1          -1           2           0           0
           0           0           0           0           0           0
Number of primitives per shell             I   N=          12
           6           3           1           1           3           1
           3           1           3           1           3           1
Shell to atom map                          I   N=          12
           1           1           1           1           2           2
           3           3           4           4           5           5
Primitive exponents                        R   N=          27
  3.04752490E+03  4.57369510E+02  1.03948690E+02  2.92101550E+01  9.28666300E+00
  3.16392700E+00  7.86827240E+00  1.88128850E+00  5.44249300E-01  1.68714400E-01
  8.00000000E-01  1.87311370E+01  2.82539370E+00  6.40121700E-01  1.61277800E-01
  1.87311370E+01  2.82539370E+00  6.40121700E-01  1.61277800E-01  1.87311370E+01
  2.82539370E+00  6.40121700E-01  1.61277800E-01  1.87311370E+01  2.82539370E+00
  6.40121700E-01  1.61277800E-01
Contraction coefficients                   R   N=          27
  1.83470016E-03  1.40373012E-02  6.88426061E-02  2.32184421E-01  4.67941342E-01
  3.62312032E-01 -1.19332409E-01 -1.60854212E-01  1.14345648E+00  1.00000000E+00
  1.00000000E+00  3.34945995E-02  2.34726947E-01  8.13757318E-01  1.00000000E+00
  3.34945995E-02  2.34726947E-01  8.13757318E-01  1.00000000E+00  3.34945995E-02
  2.34726947E-01  8.13757318E-01  1.00000000E+00  3.34945995E-02  2.34726947E-01
  8.13757318E-01  1.00000000E+00
P(S=P) Contraction coefficients            R   N=          27
  0.00000000E+00  0.00000000E+00  0.00000000E+00  0.00000000E+00  0.00000000E+00
  0.00000000E+00  6.89990956E-02  3.16423980E-01  7.44308252E-01  1.00000000E+00
  0.00000000E+00  0.00000000E+00  0.00000000E+00  0.00000000E+00  0.00000000E+00
  0.00000000E+00  0.00000000E+00  0.00000000E+00  0.00000000E+00  0.00000000E+00
  0.00000000E+00  0.00000000E+00  0.00000000E+00  0.00000000E+00  0.00000000E+00
  0.00000000E+00  0.00000000E+00
Coordinates of each shell                  R   N=          36
 -1.62904018E-05 -1.26589112E-05  3.32667373E-02 -1.62904018E-05 -1.26589112E-05
  3.32667373E-02 -1.62904018E-05 -1.26589112E-05  3.32667373E-02 -1.62904018E-05
 -1.26589112E-05  3.32667373E-02  1.79294979E+00 -5.95540747E-04  1.05985942E+00
  1.79294979E+00 -5.95540747E-04  1.05985942E+00 -1.79310622E+00  5.45128993E-04
  1.05960083E+00 -1.79310622E+00  5.45128993E-04  1.05960083E+00 -4.79110442E-04
 -1.68688066E+00 -1.15959039E+00 -4.79110442E-04 -1.68688066E+00 -1.15959039E+00
  7.33278192E-04  1.68700703E+00 -1.15947028E+00  7.33278192E-04  1.68700703E+00
 -1.15947028E+00
Overlap Matrix                             R   N=         276
  1.00000000E+00  2.19058872E-01  1.00000000E+00  1.55046010E-21  2.07769796E-22
  1.00000000E+00  2.57806132E-22 -7.12958367E-22  2.54398589E-42  1.00000000E+00
 -1.18523702E-18  4.31462490E-18  0.00000000E+00 -1.70797802E-38  1.00000000E+00
  1.84261053E-01  8.12273068E-01  2.01350238E-22 -1.95656783E-21  3.51776958E-18
  1.00000000E+00  1.81514497E-22 -5.09921751E-23  5.69754058E-01  2.80213154E-43
  0.00000000E+00  0.00000000E+00  1.00000000E+00  8.85667048E-23 -1.18140851E-21
  2.80213154E-43  5.69754058E-01 -4.89557558E-39  0.00000000E+00  0.00000000E+00
  1.00000000E+00 -6.07970080E-19  5.48188754E-18  0.00000000E+00 -4.89557558E-39
  5.69754058E-01  0.00000000E+00  0.00000000E+00  0.00000000E+00  1.00000000E+00
  7.91027073E-02  7.10235064E-01  0.00000000E+00 -4.12689402E-22  0.00000000E+00
  6.29936196E-01  0.00000000E+00  8.76663519E-22  0.00000000E+00  1.00000000E+00
  7.91027073E-02  7.10235064E-01  0.00000000E+00 -1.23806821E-21  0.00000000E+00
  6.29936196E-01  0.00000000E+00  2.62999056E-21  0.00000000E+00  3.33333333E-01
  1.00000000E+00  7.91027073E-02  7.10235064E-01  0.00000000E+00 -4.12689402E-22
  0.00000000E+00  6.29936196E-01  0.00000000E+00  8.76663519E-22  0.00000000E+00
  3.33333333E-01  3.33333333E-01  1.00000000E+00 -1.96488312E-46  0.00000000E+00
 -7.14799012E-22  0.00000000E+00  0.00000000E+00  0.00000000E+00  1.51842576E-21
  0.00000000E+00  0.00000000E+00  0.00000000E+00  0.00000000E+00  0.00000000E+00
  1.00000000E+00  0.00000000E+00  0.00000000E+00  0.00000000E+00  0.00000000E+00
  0.00000000E+00  0.00000000E+00  0.00000000E+00  0.00000000E+00  0.00000000E+00
  0.00000000E+00  0.00000000E+00  0.00000000E+00  0.00000000E+00  1.00000000E+00
  0.00000000E+00  0.00000000E+00  0.00000000E+00  0.00000000E+00 -7.14799012E-22
  0.00000000E+00  0.00000000E+00  0.00000000E+00  1.51842576E-21  0.00000000E+00
  0.00000000E+00  0.00000000E+00  0.00000000E+00  0.00000000E+00  1.00000000E+00
  3.22654588E-02  2.71604305E-01  3.18704549E-01 -1.03608816E-04  1.82479614E-01
  3.75715315E-01  4.46713245E-01 -1.45223626E-04  2.55773131E-01  3.70268718E-01
  1.16516011E-01  1.99704410E-01 -1.42882752E-04  2.51650297E-01 -8.18099063E-05
  1.00000000E+00  9.18319546E-02  4.74640908E-01  2.30568623E-01 -7.49563884E-05
  1.32015916E-01  7.03030507E-01  5.06084729E-01 -1.64524917E-04  2.89767265E-01
  4.10975791E-01  3.50073505E-01  3.70039257E-01 -3.42927822E-05  6.03976947E-02
 -1.96349053E-05  6.58292049E-01  1.00000000E+00  3.22670405E-02  2.71611275E-01
 -3.18735918E-01  9.91512125E-05  1.82439003E-01  3.75719756E-01 -4.46749399E-01
  1.38973181E-04  2.55711736E-01  3.70316376E-01  1.16519678E-01  1.99669103E-01
 -1.36745694E-04 -2.51613141E-01  7.82709026E-05  1.11231072E-02  1.21843266E-01
  1.00000000E+00  9.18331960E-02  4.74645936E-01 -2.30587095E-01  7.17301966E-05
  1.31984120E-01  7.03035538E-01 -5.06123307E-01  1.57443001E-04  2.89696348E-01
  4.10988992E-01  3.50077582E-01  3.70033510E-01 -3.28190758E-05 -6.03873551E-02
  1.87850792E-05  1.21843266E-01  3.54516621E-01  6.58292049E-01  1.00000000E+00
  3.22688893E-02  2.71619422E-01 -8.22727459E-05 -2.99864420E-01 -2.12047066E-01
  3.75724947E-01 -1.15313481E-04 -4.20289972E-01 -2.97205167E-01  1.16523960E-01
  3.41150933E-01  2.28848987E-01  1.06746494E-04  7.54850502E-05  2.75124898E-01
  2.05345478E-02  1.55716603E-01  2.05357271E-02  1.55720168E-01  1.00000000E+00
  9.18346470E-02  4.74651812E-01 -5.95183236E-05 -2.16930010E-01 -1.53400567E-01
  7.03041419E-01 -1.30638160E-04 -4.76144750E-01 -3.36702491E-01  3.50082347E-01
  4.03991516E-01  3.77039701E-01  2.56185387E-05  1.81159737E-05  6.60283780E-02
  1.55716603E-01  4.12346581E-01  1.55720168E-01  4.12352393E-01  6.58292049E-01
  1.00000000E+00  3.22647783E-02  2.71601305E-01  1.33236153E-04  2.99868506E-01
 -2.12009539E-01  3.75713404E-01  1.86752284E-04  4.20314808E-01 -2.97166081E-01
  1.16514449E-01  3.41161242E-01  2.28806556E-01  1.72882951E-04 -1.22229691E-04
 -2.75096764E-01  2.05374858E-02  1.55725482E-01  2.05319286E-02  1.55708687E-01
  1.80244188E-02  1.47824615E-01  1.00000000E+00  9.18314205E-02  4.74638745E-01
  9.63912139E-05  2.16943288E-01 -1.53380717E-01  7.03028343E-01  2.11573467E-04
  4.76178708E-01 -3.36662325E-01  3.50071754E-01  4.03988980E-01  3.77022857E-01
  4.14934439E-05 -2.93362115E-05 -6.60256671E-02  1.55725482E-01  4.12361059E-01
  1.55708687E-01  4.12333671E-01  1.47824615E-01  3.99347926E-01  6.58292049E-01
  1.00000000E+00
Core Hamiltonian Matrix                    R   N=         276
 -1.98812393E+01 -4.08454889E+00 -6.71945104E+00 -1.16323141E-06 -8.48519507E-06
 -6.00981698E+00  7.64882322E-08 -9.29461720E-08 -2.15044104E-10 -5.99175731E+00
  3.57745605E-03  2.52977795E-02  2.16264698E-06 -5.67207521E-06 -5.97368348E+00
 -3.51967449E+00 -5.37815133E+00 -8.42590022E-06 -1.23937828E-06  2.37146611E-02
 -5.44218443E+00 -1.95417197E-07 -6.08951083E-06 -3.08523263E+00 -1.52135545E-10
  1.45937478E-06 -1.11302822E-05 -3.78011600E+00  1.28447743E-08 -1.12941862E-06
 -1.52135545E-10 -3.06984376E+00 -3.74242714E-06 -5.10494315E-06 -1.61772576E-10
 -3.75556294E+00  6.00989167E-04  1.68523813E-02  1.45937478E-06 -3.74242714E-06
 -3.05444351E+00  2.70745429E-02  1.33002360E-06 -3.13081700E-06 -3.73099341E+00
 -1.50264212E+00 -4.43205308E+00  4.31667932E-06  1.76206845E-07 -5.14876802E-02
 -3.78828022E+00  5.81659249E-06  8.05651683E-09 -5.21299947E-02 -4.81086612E+00
 -1.50214056E+00 -4.41659256E+00 -1.08337898E-05 -6.47821599E-06  7.17550297E-02
 -3.77186698E+00 -9.72087144E-06 -7.98000743E-06  6.68676718E-02 -2.28112678E+00
 -4.76815242E+00 -1.50163858E+00 -4.40111983E+00 -1.35574983E-05  5.70814807E-06
  3.91246602E-02 -3.75544119E+00 -1.25380142E-05  4.73029793E-06  3.05299362E-02
 -2.30642174E+00 -2.30822123E+00 -4.70191105E+00 -1.13448137E-11 -3.26951193E-10
  3.05199209E-07 -1.87646744E-05  7.23643551E-05 -3.14253879E-10  1.39542965E-08
 -1.68370432E-05  6.98719193E-05  4.90914581E-05 -4.34560275E-05 -5.63628827E-06
 -3.64338035E+00  1.16357077E-07  3.30644194E-06 -8.91792782E-02  7.23643551E-05
 -2.34822759E-05  3.10538002E-06 -9.02917994E-02  6.98719193E-05 -2.17164776E-05
  3.67865966E-06  7.98525288E-06 -3.00687414E-06 -2.15714479E-06 -3.71926522E+00
 -3.07912582E-07 -8.69410292E-06  7.23643551E-05  1.24283357E-01  9.88680248E-06
 -8.07823725E-06  6.98719193E-05  1.15818205E-01  8.19311635E-06 -1.24542812E-06
 -7.16720348E-06 -1.43305208E-05  1.38308637E-05 -9.76233765E-06 -3.72466370E+00
 -6.19837497E-01 -1.73677614E+00 -1.79291701E+00  5.81633505E-04 -1.02142378E+00
 -1.98536429E+00 -1.97677472E+00  6.41209813E-04 -1.12684766E+00 -2.01747150E+00
 -8.08213883E-01 -1.19969702E+00  6.79056283E-04 -1.19479711E+00  3.87752886E-04
 -4.04207863E+00 -1.75559398E+00 -3.08772635E+00 -1.25367477E+00  4.04597279E-04
 -7.00180160E-01 -3.51080956E+00 -1.83140568E+00  5.89115165E-04 -1.02473739E+00
 -2.41797955E+00 -2.09459670E+00 -2.18739527E+00  1.77132201E-04 -3.15947500E-01
  1.00432018E-04 -2.95997606E+00 -3.89771251E+00 -6.19867645E-01 -1.73682127E+00
  1.79309139E+00 -5.57645525E-04 -1.02119609E+00 -1.98539386E+00  1.97693527E+00
 -6.14932382E-04 -1.12657834E+00 -2.01770000E+00 -8.08237667E-01 -1.19953562E+00
  6.51121090E-04  1.19461669E+00 -3.72256773E-04 -9.84322965E-02 -7.04503684E-01
 -4.04209900E+00 -1.75561758E+00 -3.08775684E+00  1.25376584E+00 -3.89973189E-04
 -7.00008812E-01 -3.51083305E+00  1.83153067E+00 -5.71063382E-04 -1.02448242E+00
 -2.41804840E+00 -2.09461774E+00 -2.18736636E+00  1.70555409E-04  3.15895556E-01
 -1.02634138E-04 -7.04500609E-01 -1.78095072E+00 -2.95998830E+00 -3.89772101E+00
 -6.20179218E-01 -1.74230151E+00  4.62982802E-04  1.69010250E+00  1.19686911E+00
 -1.99257788E+00  5.10949204E-04  1.86473478E+00  1.32003865E+00 -8.11049887E-01
 -1.88187276E+00 -1.34679508E+00 -5.08374164E-04 -3.60094866E-04 -1.31526634E+00
 -1.62435319E-01 -8.68105166E-01 -1.62443896E-01 -8.68123040E-01 -4.05967464E+00
 -1.75589437E+00 -3.09430867E+00  3.19344878E-04  1.17720143E+00  8.42034043E-01
 -3.52174678E+00  4.67193208E-04  1.72064883E+00  1.22754267E+00 -2.10453035E+00
 -2.37916098E+00 -2.23377224E+00 -1.32377851E-04 -9.39063730E-05 -3.50450061E-01
 -8.65988942E-01 -1.99908358E+00 -8.66010246E-01 -1.99910814E+00 -2.97155439E+00
 -3.91439463E+00 -6.20100483E-01 -1.74217640E+00 -7.53131888E-04 -1.69011913E+00
  1.19665226E+00 -1.99249077E+00 -8.30808817E-04 -1.86482992E+00  1.31985367E+00
 -8.10984341E-01 -1.88190408E+00 -1.34657266E+00 -8.27172314E-04  5.85383362E-04
  1.31513346E+00 -1.62451816E-01 -8.68131131E-01 -1.62416444E-01 -8.68053162E-01
 -1.46183045E-01 -8.31606688E-01 -4.05959677E+00 -1.75583273E+00 -3.09422103E+00
 -5.29917131E-04 -1.17727343E+00  8.41924136E-01 -3.52167130E+00 -7.74718063E-04
 -1.72077622E+00  1.22739565E+00 -2.10446840E+00 -2.37913885E+00 -2.23367538E+00
 -2.19205597E-04  1.56173890E-04  3.50426311E-01 -8.66026899E-01 -1.99912188E+00
 -8.65952607E-01 -1.99902454E+00 -8.31618428E-01 -1.95644615E+00 -2.97150618E+00
 -3.91434935E+00
Number of independent functions            I               23
Alpha MO coefficients                      R   N=         529
 -9.92802402E-01 -4.97532517E-02 -2.95696695E-08  2.55450310E-09  8.46381745E-05
  1.45526834E-02  1.75749001E-07  4.33425509E-08 -4.04684003E-04  9.30024626E-03
  9.37750154E-03  9.36543428E-03  2.48040848E-08  1.89532234E-08 -3.16415968E-08
  1.91823705E-04 -2.48830080E-03  1.91873296E-04 -2.48825107E-03  1.31669772E-04
 -2.67233295E-03  1.31619632E-04 -2.67222796E-03  1.98265669E-01 -3.79866766E-01
 -3.93953045E-06  2.27675679E-06  1.28170596E-02 -3.60880503E-01 -2.78199849E-06
 -6.63978286E-07  5.94551988E-03 -4.70192006E-03 -1.91601788E-03  1.91932022E-03
 -3.52132894E-07  2.95928743E-07 -1.02365065E-06 -1.33392361E-01 -3.92579143E-02
 -1.33393120E-01 -3.92589280E-02 -1.36275325E-01 -3.82424338E-02 -1.36268321E-01
 -3.82409699E-02  2.99437010E-06 -6.75452046E-06  4.45363817E-01  3.11383038E-06
 -2.23210160E-05 -5.45447809E-06  2.07907081E-01  8.93662708E-07 -1.01850881E-05
 -5.61715739E-06  3.04361974E-06  3.32965604E-06 -4.31857793E-07  2.26610320E-02
 -1.63958638E-05  2.41148475E-01  1.90715362E-01 -2.41192246E-01 -1.90749063E-01
 -5.94540445E-05 -4.88545817E-05  1.06089547E-04  8.45501408E-05  1.08536071E-06
 -1.57047874E-06  3.22633257E-06 -4.46542075E-01 -1.19529622E-04 -6.62473613E-06
  1.92302088E-06 -2.14021230E-01 -5.57601139E-05 -6.11051045E-06  3.01524667E-06
  2.82708796E-06 -3.41657407E-06  1.73086981E-05  2.65054067E-02  4.27572204E-05
  3.50390525E-05 -1.23021747E-04 -1.04179399E-04  2.38831894E-01  2.03646497E-01
 -2.38757468E-01 -2.03586832E-01  6.41445722E-03 -1.41205406E-02 -2.11557285E-05
  1.15402659E-04 -4.47122582E-01 -1.49961177E-02 -1.10354158E-05  5.94810719E-05
 -2.24238878E-01 -2.50971364E-02  2.18143677E-02  4.50428775E-03  1.82922893E-05
 -6.11558262E-06 -5.05979215E-06 -1.67773304E-01 -1.52271387E-01 -1.67711406E-01
 -1.52214465E-01  1.69373481E-01  1.50651597E-01  1.69479571E-01  1.50749241E-01
  1.62724026E-01 -1.96554164E-01 -8.12162622E-06 -1.75026573E-05 -1.22404581E-02
 -2.59329313E+00 -3.97533681E-05 -4.96240738E-05  9.20325015E-03  1.39853622E-02
  1.04790680E-02  1.33530362E-02 -1.64758745E-06  1.38484333E-07 -8.15145705E-07
  3.10993008E-02  1.02640378E+00  3.10999826E-02  1.02637438E+00  1.03333059E-02
  9.43126365E-01  1.03411394E-02  9.43184674E-01  6.93115387E-03  1.43226098E-04
  1.31853032E-05 -1.34118564E-04  3.71447041E-01 -1.98205892E-01  2.61292100E-05
 -4.28357571E-04  1.26117565E+00 -2.11840522E-02  2.07054589E-02  2.48446718E-03
  1.61710624E-05 -4.39186121E-06 -5.18078979E-06 -9.87229066E-02 -9.34958678E-01
 -9.86962311E-02 -9.34653368E-01  8.02660939E-02  1.10266443E+00  8.03366456E-02
  1.10351514E+00 -7.58047054E-06  5.90711312E-06  2.29930173E-05 -3.88170006E-01
 -1.24256409E-04  1.99793440E-04  1.01041761E-04 -1.35269628E+00 -4.62876940E-04
  5.65646858E-06 -4.77653165E-06 -2.91319341E-06  2.28026459E-06 -1.42365175E-05
 -1.77267987E-02 -1.24159446E-05 -3.64231289E-04  6.68644688E-05  8.90656894E-04
 -1.02568272E-01 -1.52711065E+00  1.02527124E-01  1.52630284E+00 -1.87249003E-06
  6.25897894E-06 -3.92918076E-01 -2.62286395E-05  8.26307523E-06  1.81472019E-05
 -1.46403915E+00 -7.78661882E-05  4.58727643E-05 -4.24273815E-06  1.95102763E-06
  2.14974403E-06  2.48532916E-07  1.65888465E-02 -1.11743677E-05  8.11974223E-02
  1.61679749E+00 -8.12172378E-02 -1.61706063E+00 -3.08707465E-05 -5.04761904E-04
  3.78478449E-05  7.63416448E-04  1.78889448E-04 -3.81703746E-02  5.06746316E-05
 -1.56988863E-04 -7.69681082E-01  5.69615518E-03 -1.20308079E-04  3.43362752E-04
  1.26466440E+00 -9.49027524E-02  7.61207388E-02  6.34844469E-03  6.64051741E-05
 -1.03506444E-05  2.74884653E-05 -3.01607373E-01  2.53755041E-02 -3.01597013E-01
  2.53169665E-02  2.64749253E-01  3.35547145E-02  2.64542095E-01  3.34195334E-02
 -1.63512447E-06 -2.67559356E-05  2.93165833E-05  7.62413350E-01 -1.74511490E-04
  6.57913972E-05 -6.13529873E-05 -1.45980097E+00  2.41321227E-04 -2.46858939E-05
  2.76775822E-05 -6.04078049E-06  1.23061814E-05 -6.49538040E-05 -1.01009259E-01
 -2.03705632E-04 -4.02390145E-05  3.80523911E-05  6.83410405E-05 -4.04979287E-01
 -1.91029598E-01  4.05100030E-01  1.90995669E-01 -1.27734010E-06 -1.97819605E-05
  7.67826126E-01 -3.12977276E-05  5.68007098E-05  3.52960067E-05 -1.68306228E+00
  6.29784170E-05 -8.79791687E-05 -1.70161554E-05  7.08766894E-07  1.17165308E-05
 -1.14307604E-06  1.06109409E-01 -6.71321031E-05  4.03681526E-01  3.88708387E-01
 -4.03711476E-01 -3.88742157E-01 -1.28829683E-04 -8.92869478E-05  1.13014267E-04
  1.46600304E-04  2.17099374E-02 -6.58896537E-02 -3.73327022E-05  2.97773534E-04
 -8.20673630E-01 -1.56169274E-02  4.26445710E-05 -4.33461876E-04  1.20778215E+00
  1.86056061E-01 -1.56761736E-01 -2.64834920E-02 -1.30279948E-04  4.52022648E-05
  5.81776835E-05  6.11736745E-01 -1.04258417E+00  6.11538616E-01 -1.04222972E+00
 -3.73383243E-01  9.39627886E-01 -3.73851581E-01  9.40518338E-01  2.10389906E-05
 -1.86615620E-04  2.01273444E-05 -8.50824481E-01 -2.84089501E-04  2.65074286E-04
 -3.05261829E-05  1.22280344E+00  4.22767522E-04  5.71098337E-05 -3.51008590E-05
 -3.49150970E-05  2.46358226E-05 -1.41577224E-04 -2.02602438E-01  1.78764685E-05
  8.06144404E-05  5.44413158E-04 -9.31579510E-04 -7.26650831E-01  1.39415637E+00
  7.26638306E-01 -1.39379880E+00  1.44768613E-05 -1.14206252E-05  8.62539527E-01
  1.88873519E-05 -3.13621757E-05 -7.83589722E-05 -1.22454665E+00 -2.54052377E-05
  6.06558553E-05  5.45597813E-05 -1.75665617E-05 -3.11116370E-05  1.48763080E-06
 -2.05511207E-01  1.44222145E-04 -7.41745090E-01  1.37250981E+00  7.42013665E-01
 -1.37278539E+00  2.87954513E-04 -3.92386517E-04 -2.45375643E-04  5.92422877E-04
  9.77119131E-02 -8.06508468E-01 -7.97397540E-05  1.47948222E-04  1.53738500E-01
  1.12886843E+00  6.56044682E-05 -2.13314982E-04 -1.28876582E-01 -3.29090930E-02
  2.85493564E-02 -6.13508834E-02  4.22377032E-05  1.84081296E-05  4.28369687E-05
  5.36525533E-01 -4.04588954E-01  5.36382803E-01 -4.04416213E-01  7.40062759E-01
 -6.72743446E-01  7.39828924E-01 -6.72273786E-01 -9.80986292E-02 -2.04461604E+00
  7.59461117E-06 -1.20780920E-06  8.65676311E-03  5.40047072E+00  8.18826993E-05
  1.37119644E-05 -2.15349508E-01 -1.30570312E-01 -1.64981914E-01 -4.83071477E-02
 -4.30238332E-05 -1.90133663E-05  1.75253062E-06 -2.45018874E-01 -9.97362037E-01
 -2.44937039E-01 -9.97399951E-01 -3.25192238E-01 -1.05065705E+00 -3.25244454E-01
 -1.05055389E+00  5.69017867E-06  5.44753569E-05 -1.49959058E-06 -7.47875573E-07
 -2.12675736E-07 -1.72705027E-04 -1.74445042E-06 -1.82238647E-06  1.02313903E-05
 -5.35232731E-04  6.52918794E-04 -1.13312424E-04 -9.99999751E-01 -1.61404947E-05
 -1.15423400E-04  2.96503155E-05  2.46448161E-05  2.32454037E-05  2.57542887E-05
  2.68677797E-05  3.02663120E-05  3.33406814E-05  2.93550353E-05  1.82767371E-02
  1.72778485E-01  6.28074342E-07  1.44844338E-06  6.04237579E-04 -5.50062120E-01
 -1.77503940E-05 -7.02423275E-06  3.17335558E-02 -4.05377592E-01 -5.79512063E-01
  9.98320266E-01 -1.82252950E-04 -1.15856009E-04 -7.67066870E-05  8.78002782E-02
  7.95647863E-02  8.77895351E-02  7.95579444E-02  9.50623744E-02  9.49931358E-02
  9.50699808E-02  9.49882917E-02 -1.36064180E-06  1.54456803E-05 -1.37794932E-01
  3.73852732E-05 -1.05471094E-05 -8.32132295E-06 -5.49020308E-01  1.18009622E-04
 -3.08320825E-05  1.25278957E-04  7.92255219E-06 -1.39029088E-04  1.72464058E-05
 -1.11245200E+00  4.58550920E-04  6.54008705E-01  1.53808003E-02 -6.54012872E-01
 -1.53925948E-02 -6.54952343E-05 -3.35171679E-07  3.23820324E-05  3.55100123E-05
  4.44945594E-06 -2.45025223E-05  3.81398802E-05  1.48443053E-01 -4.88091913E-05
 -2.31604398E-05  1.41249897E-04  4.30549952E-01 -1.18911324E-04 -4.50947452E-04
  4.90842114E-04 -2.54745470E-05  1.31906103E-04 -4.69391616E-04 -1.13008761E+00
  2.81886829E-04 -7.97068798E-05  1.83095770E-04 -3.33063796E-05  6.72244062E-01
 -7.50724432E-02 -6.72605791E-01  7.51676146E-02  3.20317212E-03 -1.82220555E-02
  2.13136049E-05 -7.41581955E-05 -1.54356416E-01  1.05388150E-02  6.02188320E-05
 -1.90215870E-04 -3.33847466E-01 -1.03905237E+00  9.31177409E-01  1.23972656E-01
  7.66298446E-04 -8.36121046E-05  5.42469025E-04  5.08276298E-01 -1.21539787E-01
  5.08314618E-01 -1.21513372E-01 -4.64163833E-01  9.33406211E-02 -4.63540212E-01
  9.32834732E-02  4.87641803E-01 -2.93955779E+00  2.73369869E-06 -2.56311379E-06
 -1.14228164E-02 -2.43024961E+00 -2.75037379E-05 -6.99064470E-06  6.44532767E-02
  1.88694355E+00  1.86883707E+00  1.88039047E+00 -8.21645838E-06 -5.14097860E-06
  7.82520541E-06 -1.35243157E-01  4.79893934E-01 -1.35258674E-01  4.79893173E-01
 -1.21636003E-01  5.02375871E-01 -1.21612520E-01  5.02349064E-01
Alpha Orbital Energies                     R   N=          23
 -1.01670791E+01 -6.90939751E-01 -4.05710663E-01 -3.89093725E-01 -3.71376915E-01
  1.17013216E-01  1.65107747E-01  1.78249496E-01  1.83904953E-01  5.23111147E-01
  5.34127156E-01  5.49152168E-01  8.75043535E-01  8.98906554E-01  9.15916982E-01
  9.50053875E-01  1.09371841E+00  1.65035294E+00  1.67554453E+00  2.19538311E+00
  2.24823778E+00  2.27362582E+00  4.17661711E+00
Total SCF Density                          R   N=         276
  2.05001406E+00 -5.20199328E-02  2.93947071E-01  8.92336561E-07 -2.42305175E-06
  3.96697860E-01  1.40892423E-06 -3.58655091E-06 -1.12712510E-07  3.98799677E-01
 -8.21789912E-04  2.88125380E-03 -1.06530051E-06  3.60996549E-06  4.00165805E-01
 -1.72188691E-01  2.73148439E-01 -1.38145069E-06  8.12029248E-07  4.16181712E-03
  2.61342804E-01 -3.48584382E-07 -4.00889862E-07  1.85188583E-01 -4.25204401E-07
  5.15228636E-07  7.59553413E-08  8.64507089E-02 -5.08469075E-08 -5.07456564E-07
 -5.87508763E-07  1.91138982E-01 -2.04396051E-06  1.53218343E-06 -4.52846067E-07
  9.16101809E-02  2.84385898E-04  1.85600653E-03  3.68553214E-07 -1.93004394E-06
  2.00676886E-01  2.42240315E-03  6.80597082E-07 -2.81618998E-06  1.00637181E-01
 -2.06530414E-02  3.35554171E-03 -3.90500362E-06 -3.56750229E-07  2.23240393E-02
  4.41706900E-03 -1.75237193E-06 -3.63011127E-07  1.11920702E-02  1.47693791E-03
 -1.90999186E-02 -9.35207385E-05  1.80259983E-06  2.33334532E-06 -1.95549218E-02
  1.00158089E-03  7.98087443E-07  1.30779307E-06 -9.81363237E-03 -9.02512323E-04
  1.13495064E-03 -1.77771955E-02 -2.51729955E-03  2.75957560E-06 -1.47640565E-06
 -3.97715294E-03 -1.24779982E-03  1.27772847E-06 -6.76004936E-07 -2.00483061E-03
 -6.99368103E-05  3.64810261E-04  2.23367553E-04  4.57773733E-08 -2.51518460E-07
 -3.85460917E-07  3.05550582E-06 -1.63659776E-05 -2.93698941E-07 -1.79987485E-07
  1.46461456E-06 -8.20750231E-06 -9.14348782E-07  7.99860803E-07  1.63878166E-07
  6.93183877E-10  1.37003728E-07 -3.60185467E-07  2.01848078E-02 -1.53184088E-05
  4.46064695E-06 -2.77055730E-07  9.42277823E-03 -7.36908297E-06  2.28266684E-06
  4.97441985E-08 -1.29546169E-07  9.74030372E-08 -1.99149029E-08  1.02704542E-03
 -3.50555831E-07  8.40713402E-07 -1.44329963E-05 -2.36715599E-02 -1.83718164E-06
  5.38660867E-07 -6.71557412E-06 -1.13454401E-02 -6.98497446E-07 -6.07286483E-08
 -5.76822325E-08  9.96534263E-08 -1.81285600E-07  1.74515054E-07  1.40507376E-03
 -5.54260426E-02  1.06058403E-01  2.14805761E-01 -7.60143787E-05  1.46600327E-01
  1.01312253E-01  1.00277396E-01 -3.76524111E-05  7.36513487E-02  9.67651779E-03
 -6.80350697E-03 -2.01824464E-03 -6.25253829E-06  1.09313212E-02 -3.67020179E-06
  2.08188059E-01 -1.25785457E-02  3.43708881E-02  1.69882196E-01 -6.54289319E-05
  1.35152666E-01  3.28272871E-02  7.93057270E-02 -3.27199454E-05  6.78216376E-02
  7.96390008E-03 -6.53847728E-03 -1.56778311E-03 -5.70822320E-06  8.64545420E-03
 -2.77498417E-06  1.53548045E-01  1.22212603E-01 -5.54285368E-02  1.06063743E-01
 -2.14828452E-01  6.90506180E-05  1.46566528E-01  1.01316210E-01 -1.00286708E-01
  3.24532906E-05  7.36334237E-02  9.67883972E-03 -6.80373973E-03 -2.02090201E-03
 -5.83253525E-06 -1.09293623E-02  3.35788106E-06 -2.44639817E-02 -3.04503285E-02
  2.08189183E-01 -1.25806009E-02  3.43751994E-02 -1.69898712E-01  5.65423625E-05
  1.35118800E-01  3.28304762E-02 -7.93125851E-02  2.61964348E-05  6.78038832E-02
  7.96534058E-03 -6.53831193E-03 -1.56981436E-03 -5.37571195E-06 -8.64330641E-03
  2.35323610E-06 -3.04499252E-02 -2.33069149E-02  1.53543406E-01  1.22203828E-01
 -5.21254852E-02  9.87357924E-02 -5.75089830E-05 -2.13258508E-01 -1.55011784E-01
  9.32789951E-02 -2.67832080E-05 -1.02209862E-01 -7.76074337E-02 -7.22053630E-03
  7.91567208E-03  1.00651811E-03  4.66051561E-06  3.42087268E-06  1.26592400E-02
 -2.04847227E-02 -4.08882955E-02 -2.04853805E-02 -4.08898775E-02  2.08598070E-01
 -7.92498810E-03  2.50647708E-02 -4.82748794E-05 -1.81838862E-01 -1.35748907E-01
  2.30030424E-02 -2.26443586E-05 -8.71513754E-02 -6.80391792E-02 -7.25441656E-03
  6.67039323E-03  1.16145334E-03  4.14682096E-06  2.97014104E-06  1.07940220E-02
 -4.03553083E-02 -4.28682832E-02 -4.03569920E-02 -4.28704853E-02  1.58729630E-01
  1.31274854E-01 -5.21222830E-02  9.87289779E-02  8.68590002E-05  2.13269007E-01
 -1.54992311E-01  9.32770824E-02  4.02129526E-05  1.02218677E-01 -7.76016722E-02
 -7.22009348E-03  7.91739382E-03  1.00480051E-03  7.92768785E-06 -5.61054366E-06
 -1.26581671E-02 -2.04831893E-02 -4.08914796E-02 -2.04851823E-02 -4.08863689E-02
 -1.94950652E-02 -3.57577570E-02  2.08595075E-01 -7.92424662E-03  2.50621680E-02
  6.79205102E-05  1.81854793E-01 -1.35738840E-01  2.30044545E-02  3.12588147E-05
  8.71617925E-02 -6.80375408E-02 -7.25435421E-03  6.67219465E-03  1.16003888E-03
  6.93296263E-06 -5.08223248E-06 -1.07937534E-02 -4.03589464E-02 -4.28757888E-02
 -4.03542897E-02 -4.28663693E-02 -3.57583228E-02 -3.45591333E-02  1.58734966E-01
  1.31284903E-01
Pure Switching                             I                1
Dipole_Data                                R   N=           3
  1.94824199E-05 -7.22593562E-07 -5.99510231E-02
Quadrupole_Data                            R   N=           6
 -7.92780613E+00 -1.41178738E-05 -8.28037784E+00 -2.22050811E-05  4.25336414E-05
 -8.56000613E+00
Octapole_Data                              R   N=          10
 -1.79414961E-04 -2.66603643E-05  8.43773074E-05  2.57763536E-05  6.68661136E-01
 -4.39705491E-04 -6.32309415E-01  1.00905508E-04 -6.25796520E-05 -1.82607742E-01
Hexadecapole_Data                          R   N=          15
 -1.51485466E+01 -5.84431890E-04 -5.57460796E+00  4.56142503E-04 -1.51872149E+01
 -4.65858274E-05  1.75905514E-05 -8.60370700E-05  3.11279146E-05 -4.89138997E+00
  3.82949772E-05 -4.76825748E+00  3.01317064E-05  1.33441506E-04 -1.53482121E+01
