Jobname.Temp
SP        R                             6-31G(d)            
Number of atoms                            I                5
Charge                                     I                0
Multiplicity                               I                1
Number of electrons                        I               10
Number of alpha electrons                  I                5
Number of beta electrons                   I                5
Atomic numbers                             I   N=           5
           6           1           1           1           1
Current cartesian coordinates              R   N=          15
 -1.64162015E-05 -1.25763962E-05  5.06236985E-02  1.83994352E+00 -4.18834899E-04
  9.90393614E-01 -1.84004606E+00  3.81700584E-04  9.90210947E-01 -3.36060094E-04
 -1.68688760E+00 -1.14222355E+00  5.37096779E-04  1.68700020E+00 -1.14212321E+00
Nuclear charges                            R   N=           5
  6.00000000E+00  1.00000000E+00  1.00000000E+00  1.00000000E+00  1.00000000E+00
Number of basis functions                  I               23
Number of contracted shells                I               12
Number of primitive shells                 I               27
Highest angular momentum                   I                2
Largest degree of contraction              I                6
Shell types                                I   N=          12
           0          -1          -1           2           0           0
           0           0           0           0           0           0
Number of primitives per shell             I   N=          12
           6           3           1           1           3           1
           3           1           3           1           3           1
Shell to atom map                          I   N=          12
           1           1           1           1           2           2
           3           3           4           4           5           5
Primitive exponents                        R   N=          27
  3.04752490E+03  4.57369510E+02  1.03948690E+02  2.92101550E+01  9.28666300E+00
  3.16392700E+00  7.86827240E+00  1.88128850E+00  5.44249300E-01  1.68714400E-01
  8.00000000E-01  1.87311370E+01  2.82539370E+00  6.40121700E-01  1.61277800E-01
  1.87311370E+01  2.82539370E+00  6.40121700E-01  1.61277800E-01  1.87311370E+01
  2.82539370E+00  6.40121700E-01  1.61277800E-01  1.87311370E+01  2.82539370E+00
  6.40121700E-01  1.61277800E-01
Contraction coefficients                   R   N=          27
  1.83470016E-03  1.40373012E-02  6.88426061E-02  2.32184421E-01  4.67941342E-01
  3.62312032E-01 -1.19332409E-01 -1.60854212E-01  1.14345648E+00  1.00000000E+00
  1.00000000E+00  3.34945995E-02  2.34726947E-01  8.13757318E-01  1.00000000E+00
  3.34945995E-02  2.34726947E-01  8.13757318E-01  1.00000000E+00  3.34945995E-02
  2.34726947E-01  8.13757318E-01  1.00000000E+00  3.34945995E-02  2.34726947E-01
  8.13757318E-01  1.00000000E+00
P(S=P) Contraction coefficients            R   N=          27
  0.00000000E+00  0.00000000E+00  0.00000000E+00  0.00000000E+00  0.00000000E+00
  0.00000000E+00  6.89990956E-02  3.16423980E-01  7.44308252E-01  1.00000000E+00
  0.00000000E+00  0.00000000E+00  0.00000000E+00  0.00000000E+00  0.00000000E+00
  0.00000000E+00  0.00000000E+00  0.00000000E+00  0.00000000E+00  0.00000000E+00
  0.00000000E+00  0.00000000E+00  0.00000000E+00  0.00000000E+00  0.00000000E+00
  0.00000000E+00  0.00000000E+00
Coordinates of each shell                  R   N=          36
 -1.64162015E-05 -1.25763962E-05  5.06236985E-02 -1.64162015E-05 -1.25763962E-05
  5.06236985E-02 -1.64162015E-05 -1.25763962E-05  5.06236985E-02 -1.64162015E-05
 -1.25763962E-05  5.06236985E-02  1.83994352E+00 -4.18834899E-04  9.90393614E-01
  1.83994352E+00 -4.18834899E-04  9.90393614E-01 -1.84004606E+00  3.81700584E-04
  9.90210947E-01 -1.84004606E+00  3.81700584E-04  9.90210947E-01 -3.36060094E-04
 -1.68688760E+00 -1.14222355E+00 -3.36060094E-04 -1.68688760E+00 -1.14222355E+00
  5.37096779E-04  1.68700020E+00 -1.14212321E+00  5.37096779E-04  1.68700020E+00
 -1.14212321E+00
Overlap Matrix                             R   N=         276
  1.00000000E+00  2.19058872E-01  1.00000000E+00  1.82814967E-21  2.07769796E-22
  1.00000000E+00 -2.90415678E-22 -6.34705224E-22  1.68394962E-42  1.00000000E+00
 -7.79978971E-19 -1.71487230E-18 -6.89745763E-39 -1.23054855E-38  1.00000000E+00
  1.84261053E-01  8.12273068E-01  0.00000000E+00 -1.45803671E-21  5.97211835E-18
  1.00000000E+00 -2.93980434E-25  0.00000000E+00  5.69754058E-01  0.00000000E+00
  0.00000000E+00  0.00000000E+00  1.00000000E+00  2.51755575E-22 -1.24713194E-21
  0.00000000E+00  5.69754058E-01 -8.31121996E-39  1.39167034E-21  0.00000000E+00
  1.00000000E+00 -7.26780557E-19  5.10825241E-18  0.00000000E+00 -8.31121996E-39
  5.69754058E-01  0.00000000E+00  0.00000000E+00  0.00000000E+00  1.00000000E+00
  7.91027073E-02  7.10235064E-01  0.00000000E+00  0.00000000E+00  1.81644335E-18
  6.29936196E-01  0.00000000E+00  0.00000000E+00  0.00000000E+00  1.00000000E+00
  7.91027073E-02  7.10235064E-01  0.00000000E+00  0.00000000E+00  1.81644335E-18
  6.29936196E-01  0.00000000E+00  0.00000000E+00  0.00000000E+00  3.33333333E-01
  1.00000000E+00  7.91027073E-02  7.10235064E-01  0.00000000E+00  0.00000000E+00
  5.44933004E-18  6.29936196E-01  0.00000000E+00  0.00000000E+00  0.00000000E+00
  3.33333333E-01  3.33333333E-01  1.00000000E+00  9.57187851E-42  0.00000000E+00
  0.00000000E+00  0.00000000E+00  0.00000000E+00  0.00000000E+00  0.00000000E+00
  0.00000000E+00  0.00000000E+00  0.00000000E+00  0.00000000E+00  0.00000000E+00
  1.00000000E+00 -1.96032072E-38  0.00000000E+00  3.14617217E-18  0.00000000E+00
  0.00000000E+00  0.00000000E+00  0.00000000E+00  0.00000000E+00  0.00000000E+00
  0.00000000E+00  0.00000000E+00  0.00000000E+00  0.00000000E+00  1.00000000E+00
 -1.98423084E-38  0.00000000E+00  0.00000000E+00  3.14617217E-18  0.00000000E+00
  0.00000000E+00  0.00000000E+00  0.00000000E+00  0.00000000E+00  0.00000000E+00
  0.00000000E+00  0.00000000E+00  0.00000000E+00  0.00000000E+00  1.00000000E+00
  3.22654588E-02  2.71604305E-01  3.27057834E-01 -7.22135430E-05  1.67046633E-01
  3.75715315E-01  4.58421654E-01 -1.01218342E-04  2.34141445E-01  3.83744818E-01
  1.16515997E-01  1.86228324E-01 -1.02196975E-04  2.36405249E-01 -5.21976814E-05
  1.00000000E+00  9.18319546E-02  4.74640908E-01  2.36611854E-01 -5.22432993E-05
  1.20850839E-01  7.03030508E-01  5.19349271E-01 -1.14671006E-04  2.65260569E-01
  4.14210142E-01  3.50073501E-01  3.66804909E-01 -2.45279333E-05  5.67387849E-02
 -1.25277803E-05  6.58292049E-01  1.00000000E+00  3.22670405E-02  2.71611275E-01
 -3.27079825E-01  7.00858522E-05  1.67019066E-01  3.75719756E-01 -4.58444458E-01
  9.82343391E-05  2.34098710E-01  3.83778143E-01  1.16519666E-01  1.86207348E-01
 -9.91901936E-05 -2.36376572E-01  5.06501845E-05  8.90686860E-03  1.11433633E-01
  1.00000000E+00  9.18331960E-02  4.74645936E-01 -2.36623432E-01  5.07030810E-05
  1.20828683E-01  7.03035538E-01 -5.19372663E-01  1.11289884E-04  2.65210907E-01
  4.14219827E-01  3.50077579E-01  3.66802678E-01 -2.38057258E-05 -5.67305663E-02
  1.21560848E-05  1.11433633E-01  3.35531944E-01  6.58292049E-01  1.00000000E+00
  3.22688893E-02  2.71619422E-01 -5.68211799E-05 -2.99865668E-01 -2.12045309E-01
  3.75724947E-01 -7.96405659E-05 -4.20291721E-01 -2.97202705E-01  1.16523951E-01
  3.41152803E-01  2.28847125E-01  7.37241345E-05  5.21328666E-05  2.75123764E-01
  2.19808074E-02  1.59996228E-01  2.19820678E-02  1.59999881E-01  1.00000000E+00
  9.18346470E-02  4.74651812E-01 -4.11059743E-05 -2.16930913E-01 -1.53399296E-01
  7.03041419E-01 -9.02244639E-05 -4.76146732E-01 -3.36699701E-01  3.50082344E-01
  4.03991965E-01  3.77039254E-01  1.76933642E-05  1.25115853E-05  6.60281058E-02
  1.59996228E-01  4.19288707E-01  1.59999881E-01  4.19294601E-01  6.58292049E-01
  1.00000000E+00  3.22647783E-02  2.71601305E-01  9.83871803E-05  2.99867276E-01
 -2.12011297E-01  3.75713404E-01  1.37905742E-04  4.20313085E-01 -2.97168545E-01
  1.16514429E-01  3.41159400E-01  2.28808418E-01  1.27663520E-04 -9.02602934E-05
 -2.75097917E-01  2.19839513E-02  1.60005339E-01  2.19778040E-02  1.59987523E-01
  1.80244188E-02  1.47824615E-01  1.00000000E+00  9.18314205E-02  4.74638745E-01
  7.11793270E-05  2.16942399E-01 -1.53381989E-01  7.03028343E-01  1.56234748E-04
  4.76176756E-01 -3.36665117E-01  3.50071749E-01  4.03988538E-01  3.77023304E-01
  3.06403788E-05 -2.16632722E-05 -6.60259438E-02  1.60005339E-01  4.19303409E-01
  1.59987523E-01  4.19274660E-01  1.47824615E-01  3.99347926E-01  6.58292049E-01
  1.00000000E+00
Core Hamiltonian Matrix                    R   N=         276
 -1.98812393E+01 -4.08454889E+00 -6.71945104E+00 -1.16149995E-06 -8.47967781E-06
 -6.01816528E+00  8.54185620E-08 -2.98208795E-08 -9.71377338E-11 -5.99175731E+00
  5.44384732E-03  3.84959270E-02  2.11083872E-06 -5.61910924E-06 -5.96533518E+00
 -3.51967449E+00 -5.37815133E+00 -8.43295709E-06 -1.18024884E-06  3.60869982E-02
 -5.44218443E+00 -1.95126372E-07 -6.09716487E-06 -3.09234611E+00 -7.39518847E-11
  1.43837108E-06 -1.11775012E-05 -3.79146509E+00  1.43450109E-08 -1.08740920E-06
 -7.39518847E-11 -3.06984377E+00 -3.69734039E-06 -5.03758201E-06 -9.50482377E-11
 -3.75556294E+00  9.14530669E-04  2.56445779E-02  1.43837108E-06 -3.69734039E-06
 -3.04733002E+00  4.12001739E-02  1.35677194E-06 -3.05900095E-06 -3.71964431E+00
 -1.50287398E+00 -4.43919992E+00  9.33764980E-08 -1.66024257E-07 -4.44698730E-02
 -3.79586734E+00  1.68559164E-06 -3.28469261E-07 -4.66141703E-02 -4.83140473E+00
 -1.50214056E+00 -4.41659256E+00 -9.45155676E-06 -5.31363863E-06  7.65882004E-02
 -3.77186698E+00 -8.38847020E-06 -6.87364933E-06  7.02741042E-02 -2.28293163E+00
 -4.76815243E+00 -1.50140672E+00 -4.39397299E+00 -1.07074623E-05  5.03398726E-06
  5.82592281E-02 -3.74785406E+00 -9.76218054E-06  4.07329996E-06  4.52246457E-02
 -2.30299141E+00 -2.30641638E+00 -4.68823311E+00 -4.95656635E-12 -1.46326823E-10
 -2.87562449E-07 -1.63705765E-05  5.00783764E-05 -1.46028324E-10 -5.68925448E-07
 -1.45292566E-05  4.83535442E-05  3.72320264E-05 -3.12967137E-05 -5.93569778E-06
 -3.64879489E+00  1.13121010E-07  3.22360302E-06 -7.70240795E-02  5.00783764E-05
 -1.85458687E-05  3.04186893E-06 -8.07381113E-02  4.83535442E-05 -1.69085927E-05
  2.04596396E-06  6.63191088E-06 -2.34444476E-07 -2.70468464E-06 -3.70897422E+00
 -3.05363221E-07 -8.61555437E-06  5.00783764E-05  1.32654654E-01  8.71912170E-06
 -7.99489710E-06  4.83535442E-05  1.21718319E-01  7.05516249E-06 -1.56155040E-06
 -7.45874577E-06 -1.35149993E-05  1.14868066E-05 -1.02809301E-05 -3.71924913E+00
 -6.19797840E-01 -1.73630113E+00 -1.84007211E+00  4.05035236E-04 -9.32497062E-01
 -1.98479676E+00 -2.02862162E+00  4.46456070E-04 -1.02906779E+00 -2.08202365E+00
 -8.08278555E-01 -1.13390737E+00  4.85200369E-04 -1.12008664E+00  2.46721373E-04
 -4.04072838E+00 -1.75555173E+00 -3.08685474E+00 -1.28813332E+00  2.81479903E-04
 -6.32148328E-01 -3.50947627E+00 -1.88176029E+00  4.09203977E-04 -9.26559836E-01
 -2.43684883E+00 -2.09504929E+00 -2.16579935E+00  1.25679571E-04 -2.95287308E-01
  6.29959247E-05 -2.95908568E+00 -3.89621149E+00 -6.19827981E-01 -1.73634608E+00
  1.84019358E+00 -3.94092965E-04 -9.32342641E-01 -1.98482607E+00  2.02872294E+00
 -4.34587463E-04 -1.02888081E+00 -2.08218347E+00 -8.08302257E-01 -1.13381425E+00
  4.72161462E-04  1.11994687E+00 -2.40626842E-04 -8.23834980E-02 -6.53883368E-01
 -4.04074812E+00 -1.75557532E+00 -3.08688510E+00  1.28818688E+00 -2.75826995E-04
 -6.32029253E-01 -3.50949949E+00  1.88183022E+00 -4.04339321E-04 -9.26381663E-01
 -2.43689909E+00 -2.09507021E+00 -2.16578879E+00  1.23063159E-04  2.95246704E-01
 -6.76908189E-05 -6.53880488E-01 -1.70889259E+00 -2.95909750E+00 -3.89621943E+00
 -6.20261185E-01 -1.74405542E+00  3.19833285E-04  1.69163954E+00  1.19890613E+00
 -1.99491774E+00  3.53086543E-04  1.86686085E+00  1.32232460E+00 -8.12373792E-01
 -1.88348832E+00 -1.34845611E+00 -3.51054890E-04 -2.48920034E-04 -1.31762759E+00
 -1.71868659E-01 -8.88984974E-01 -1.71877714E-01 -8.89003239E-01 -4.06544227E+00
 -1.75596546E+00 -3.09626894E+00  2.19541461E-04  1.17772338E+00  8.47560821E-01
 -3.52507663E+00  3.21379389E-04  1.72189871E+00  1.23431378E+00 -2.10966651E+00
 -2.38004754E+00 -2.23299296E+00 -9.06368649E-05 -6.45683290E-05 -3.52329606E-01
 -8.85975066E-01 -2.02520271E+00 -8.85996703E-01 -2.02522743E+00 -2.97534925E+00
 -3.91975119E+00 -6.20182435E-01 -1.74393008E+00 -5.57345417E-04 -1.69164211E+00
  1.19870880E+00 -1.99483040E+00 -6.14934305E-04 -1.86694053E+00  1.32216119E+00
 -8.12308035E-01 -1.88350183E+00 -1.34825113E+00 -6.11983331E-04  4.33387155E-04
  1.31750543E+00 -1.71886211E-01 -8.89011659E-01 -1.71847367E-01 -8.88929007E-01
 -1.46345685E-01 -8.32710479E-01 -4.06536397E+00 -1.75590381E+00 -3.09618113E+00
 -3.93481830E-04 -1.17778560E+00  8.47464573E-01 -3.52500089E+00 -5.75544967E-04
 -1.72201183E+00  1.23418677E+00 -2.10960431E+00 -2.38002064E+00 -2.23290065E+00
 -1.62142804E-04  1.16090151E-04  3.52308864E-01 -8.86013939E-01 -2.02524160E+00
 -8.85935033E-01 -2.02513922E+00 -8.32722272E-01 -1.95949909E+00 -2.97530075E+00
 -3.91970551E+00
Number of independent functions            I               23
Alpha MO coefficients                      R   N=         529
 -9.92798578E-01 -4.97427603E-02 -3.01884015E-08  2.64379403E-09  1.25121376E-04
  1.44667236E-02  1.81954505E-07  3.72744274E-08 -5.96913871E-04  9.28095032E-03
  9.39828830E-03  9.38386486E-03  2.61666364E-08  1.74352801E-08 -3.02074239E-08
  2.08011759E-04 -2.42143827E-03  2.08062188E-04 -2.42138277E-03  1.20327656E-04
 -2.69647629E-03  1.20280391E-04 -2.69636162E-03 -1.98047520E-01  3.79467257E-01
  4.04667472E-06 -2.34130131E-06 -1.89693194E-02  3.59808187E-01  2.96009072E-06
  6.00518662E-07 -8.70590577E-03  6.22007621E-03  2.08746158E-03 -3.39872207E-03
  3.58808315E-07 -3.02715968E-07  1.02381060E-06  1.33087670E-01  3.97541156E-02
  1.33088221E-01  3.97552129E-02  1.36888677E-01  3.79795428E-02  1.36881594E-01
  3.79781625E-02  3.04550838E-06 -6.84211702E-06  4.45156684E-01  3.62612199E-06
 -1.43789266E-05 -5.57244899E-06  2.05427102E-01  1.07806616E-06 -6.54116656E-06
 -3.71720376E-06  2.16850884E-06  2.31486651E-06 -2.88621519E-07  2.08325610E-02
 -1.11824441E-05  2.41765589E-01  1.85721615E-01 -2.41796034E-01 -1.85743911E-01
 -4.23933445E-05 -3.44378104E-05  7.54940470E-05  5.86691938E-05  1.07384071E-06
 -1.55514749E-06  3.93896433E-06 -4.46683175E-01 -8.01445535E-05 -6.57641408E-06
  2.30513510E-06 -2.13615804E-01 -3.68283155E-05 -4.23720172E-06  1.44948343E-06
  2.53052846E-06 -2.86276018E-06  1.20555985E-05  2.69644642E-02  3.29003341E-05
  2.67079058E-05 -8.51364885E-05 -7.22783527E-05  2.38406630E-01  2.04332386E-01
 -2.38360229E-01 -2.04296323E-01  9.44965060E-03 -2.09450245E-02 -1.33984672E-05
  7.60126553E-05 -4.47414728E-01 -2.20492782E-02 -7.22184233E-06  4.06362352E-05
 -2.29780353E-01 -2.63932880E-02  2.16258628E-02  6.57769509E-03  1.31136427E-05
 -4.48324124E-06 -3.08805195E-06 -1.66520747E-01 -1.56999607E-01 -1.66477800E-01
 -1.56958410E-01  1.69448016E-01  1.54618472E-01  1.69514573E-01  1.54682506E-01
 -1.62098566E-01  1.96722444E-01  8.65426453E-06  1.51294017E-05  2.81524934E-02
  2.56748807E+00  4.08849596E-05  4.27091664E-05  1.54586694E-02 -1.53951679E-02
 -8.64494320E-03 -1.33808192E-02  2.08697693E-06 -2.80436321E-07  7.51272566E-07
 -4.19939561E-02 -1.05959406E+00 -4.19937856E-02 -1.05955644E+00 -3.48108426E-03
 -8.86289516E-01 -3.48783367E-03 -8.86336556E-01  1.50816759E-02 -6.03131315E-03
  4.73696110E-06 -9.04447642E-05  3.63867826E-01 -3.73619666E-01 -6.67182775E-06
 -2.74397331E-04  1.21363707E+00 -2.28418223E-02  2.25593796E-02  4.19104878E-03
  1.21733054E-05 -3.13113104E-06 -3.18336257E-06 -1.10206112E-01 -8.27543578E-01
 -1.10188489E-01 -8.27373445E-01  8.32119902E-02  1.13896692E+00  8.32596239E-02
  1.13948701E+00  7.65357788E-06 -6.05537308E-06  2.77979048E-06  3.90180916E-01
  7.99346814E-05 -2.01380604E-04 -6.13387389E-06  1.34948733E+00  3.07536859E-04
 -3.72402072E-06  3.04756730E-06  2.70492684E-06 -1.88313674E-06  9.18367859E-06
  1.68584601E-02  4.15701765E-06  2.27094461E-04 -4.22102685E-05 -5.13532063E-04
  1.01869972E-01  1.52646768E+00 -1.01845580E-01 -1.52589689E+00  2.11806701E-06
 -6.69681890E-06  3.97678441E-01  1.14893369E-07  5.20227616E-08 -2.40654211E-05
  1.51760606E+00 -1.43484865E-05 -1.62359633E-05  2.66481298E-06 -1.12070386E-06
 -1.38147791E-06 -3.44374683E-07 -1.51898845E-02  5.97037455E-06 -6.91060620E-02
 -1.66780441E+00  6.91187321E-02  1.66797863E+00  1.66681857E-05  2.97241614E-04
 -1.75385047E-05 -4.56703385E-04 -6.94620000E-04  5.66373917E-02 -3.79606495E-05
  1.17697921E-04  7.74321936E-01 -6.25803006E-03  9.57008047E-05 -2.66991554E-04
 -1.18452329E+00  9.75950858E-02 -7.06736689E-02 -8.74134972E-03 -4.56124102E-05
  7.42486463E-06 -2.09525857E-05  3.06514908E-01 -9.60141212E-02  3.06508710E-01
 -9.59530598E-02 -2.55734279E-01  1.01818686E-02 -2.55572459E-01  1.02893293E-02
 -1.51471290E-06 -2.77096151E-05  3.88843685E-05  7.61293683E-01 -1.35960672E-04
  6.61622703E-05 -8.33345968E-05 -1.46307692E+00  1.63253579E-04 -1.99348709E-05
  2.13849944E-05 -4.70374804E-06  1.00949341E-05 -4.31243372E-05 -1.00600193E-01
 -1.41640341E-04 -6.06002523E-06  9.40153301E-06  5.46838665E-05 -4.05623857E-01
 -1.94499131E-01  4.05712178E-01  1.94445010E-01  1.59504518E-06  2.07658138E-05
 -7.72782813E-01  4.04394318E-05 -4.45576377E-05 -4.11671094E-05  1.82554227E+00
 -8.71862382E-05  6.87570137E-05  1.29988549E-05 -6.98499380E-08 -7.93474323E-06
  5.14272877E-07 -1.08466633E-01  4.55999237E-05 -4.03105093E-01 -5.12942783E-01
  4.03134685E-01  5.12974301E-01  8.55597835E-05  7.25418268E-05 -6.39370812E-05
 -1.25496071E-04 -2.69395095E-02  7.79314981E-02  1.28748843E-05 -1.82922121E-04
  8.03607085E-01  3.34986720E-02 -2.72160300E-06  2.67464981E-04 -1.19933411E+00
 -1.90193981E-01  1.47030143E-01  3.90861966E-02  8.79713285E-05 -3.06319094E-05
 -3.35536646E-05 -6.25988376E-01  1.05113713E+00 -6.25859459E-01  1.05092478E+00
  3.37750548E-01 -9.35604896E-01  3.38030208E-01 -9.36130708E-01 -1.95792091E-05
  1.84146432E-04 -6.67035667E-06  8.50943070E-01  1.61965845E-04 -2.69308231E-04
  1.23177824E-05 -1.22273710E+00 -2.51622257E-04 -3.33408416E-05  1.24925682E-05
  3.41730186E-05 -2.01971092E-05  9.64178941E-05  2.01868677E-01 -2.31134730E-05
 -5.68359067E-05 -3.80823050E-04  6.33749054E-04  7.27015118E-01 -1.39402393E+00
 -7.27127352E-01  1.39392744E+00 -1.74431760E-05  2.33036237E-05 -8.66555571E-01
 -4.88917356E-06 -7.68733987E-07  7.24961821E-05  1.21639228E+00  5.05579326E-06
 -2.70101050E-05 -3.78897988E-05  4.98348861E-06  2.68346048E-05 -2.70547976E-07
  2.04094770E-01 -9.97893470E-05  7.52781872E-01 -1.36119132E+00 -7.53022238E-01
  1.36137589E+00 -2.53574297E-04  2.92765686E-04  1.10170397E-04 -3.61954993E-04
 -9.58711142E-02  8.17648583E-01  1.05951162E-04 -1.52305121E-04 -1.91244765E-01
 -1.16641103E+00 -9.62569211E-05  2.17222936E-04  1.46753893E-01  3.27416511E-02
 -4.18151771E-02  7.67937724E-02 -3.90442372E-05 -2.54803631E-05 -4.45190735E-05
 -5.03759673E-01  3.84063404E-01 -5.03564411E-01  3.83811953E-01 -7.56077599E-01
  7.00923794E-01 -7.55834237E-01  7.00441903E-01 -9.72770500E-02 -2.02787406E+00
  1.22000812E-05 -1.75428028E-06  1.81929051E-02  5.35225211E+00  8.28028426E-05
  1.06641893E-05 -3.21810967E-01 -1.35320767E-01 -1.84791456E-01 -2.46073565E-02
 -4.35547859E-05 -2.03556041E-05  2.58102743E-07 -2.28664385E-01 -9.67694837E-01
 -2.28568864E-01 -9.67741803E-01 -3.38306776E-01 -1.05741120E+00 -3.38355930E-01
 -1.05730437E+00  4.91180960E-06  4.65195108E-05 -1.48565333E-06 -8.57205327E-07
 -2.99911999E-07 -1.47959577E-04 -2.16913226E-06 -2.05760132E-06  1.29000750E-05
 -3.62777083E-04  4.84046748E-04 -1.17395447E-04 -9.99999869E-01 -1.04423805E-05
 -9.29298304E-05  2.54049406E-05  2.02182946E-05  1.88049001E-05  2.08566613E-05
  2.31915187E-05  2.68654181E-05  3.03118734E-05  2.58931832E-05  2.55255781E-02
  2.36873768E-01  1.00106498E-06  2.45350361E-06  1.36311662E-03 -7.58716006E-01
 -2.66887912E-05 -8.91529671E-06  6.68406012E-02 -3.59200159E-01 -6.15423036E-01
  9.93323087E-01 -1.88568362E-04 -7.77964989E-05 -6.59675437E-05  1.18132699E-01
  1.04096974E-01  1.18117771E-01  1.04085279E-01  1.38588814E-01  1.35119424E-01
  1.38597558E-01  1.35111962E-01 -1.22816373E-06  1.47911869E-05 -1.26439779E-01
  2.80731750E-05 -7.31989622E-06 -8.44638953E-06 -6.14408195E-01  9.79207005E-05
 -2.17122539E-05  8.21151989E-05  8.84602095E-06 -9.58354407E-05  1.08888473E-05
 -1.10054988E+00  2.89385070E-04  6.35803737E-01  7.02499807E-02 -6.35806932E-01
 -7.02625817E-02 -3.30965041E-05 -3.50364451E-06  7.81192579E-07  3.88689179E-05
  4.59186073E-06 -2.05721026E-05  3.00498764E-05  1.47812155E-01 -2.22506714E-05
 -3.34728547E-05  1.25834015E-04  4.29889753E-01 -5.01159293E-05 -2.74504005E-04
  3.06889454E-04 -1.87189702E-05  1.06347850E-04 -3.01288956E-04 -1.13025797E+00
  1.63392859E-04 -6.51247317E-05  1.32091226E-04 -1.81182128E-05  6.71739966E-01
 -7.50082980E-02 -6.71931174E-01  7.50836639E-02  5.92686170E-03 -2.01564570E-02
  1.83214575E-05 -4.83648064E-05 -1.55246419E-01 -1.19754754E-02  5.13714196E-05
 -1.15338606E-04 -2.87641096E-01 -1.06527197E+00  9.06972137E-01  1.84182974E-01
  5.35541457E-04 -5.88304121E-05  3.33541600E-04  5.30905425E-01 -1.51552936E-01
  5.30944636E-01 -1.51525019E-01 -4.53895874E-01  1.17950188E-01 -4.53511258E-01
  1.17916690E-01  4.87022981E-01 -2.94351610E+00  2.71990618E-06 -2.58518107E-06
 -1.72969739E-02 -2.41182113E+00 -2.82132105E-05 -5.98766207E-06  9.53950096E-02
  1.89118213E+00  1.86316006E+00  1.87896441E+00 -8.75034316E-06 -4.57461033E-06
  7.38713305E-06 -1.39168249E-01  4.69918891E-01 -1.39183689E-01  4.69917346E-01
 -1.19160341E-01  5.03747882E-01 -1.19137530E-01  5.03719782E-01
Alpha Orbital Energies                     R   N=          23
 -1.01672028E+01 -6.91703498E-01 -4.13151282E-01 -3.89201477E-01 -3.62563709E-01
  1.15730804E-01  1.58124805E-01  1.79048387E-01  1.87431545E-01  5.19728397E-01
  5.34531207E-01  5.61232987E-01  8.62762332E-01  8.99423560E-01  9.24883277E-01
  9.52741387E-01  1.08824534E+00  1.64738807E+00  1.69126616E+00  2.15719325E+00
  2.25020289E+00  2.29399935E+00  4.17399901E+00
Total SCF Density                          R   N=         276
  2.04992227E+00 -5.19318610E-02  2.93816871E-01  9.15317843E-07 -2.45621363E-06
  3.96328948E-01  1.39940333E-06 -3.57206444E-06 -2.92609159E-07  3.99051730E-01
 -1.19061333E-03  4.33330642E-03 -9.66571736E-07  3.66880643E-06  4.01079593E-01
 -1.71660039E-01  2.72555268E-01 -1.45924464E-06  8.38295996E-07  6.08333227E-03
  2.60314777E-01 -4.18988493E-07 -2.80183214E-07  1.82894496E-01 -5.70634431E-07
  4.42049009E-07  1.64372723E-07  8.44005890E-02 -2.65013694E-09 -5.85814401E-07
 -7.24117417E-07  1.90837178E-01 -2.14501829E-06  1.45086218E-06 -5.42481930E-07
  9.12634270E-02  2.90908352E-04  3.07768238E-03  2.63006996E-07 -1.99053606E-06
  2.05944375E-01  3.85079932E-03  5.79481625E-07 -2.95111121E-06  1.05750322E-01
 -2.13907846E-02  4.90292653E-03 -2.55246948E-06 -2.56178392E-07  2.33838336E-02
  5.90850457E-03 -1.10583060E-06 -3.26626795E-07  1.20099358E-02  1.64286214E-03
 -1.90793340E-02 -2.56655453E-04  1.36748412E-06  1.98304945E-06 -1.94283029E-02
  8.20427034E-04  5.94368790E-07  1.14153458E-06 -9.98596333E-03 -9.41136842E-04
  1.12072653E-03 -1.71620446E-02 -3.78850617E-03  1.85664086E-06 -1.24473156E-06
 -5.75462467E-03 -2.46433541E-03  8.39371973E-07 -5.49913658E-07 -2.97487523E-03
 -2.15312294E-04  4.46691811E-04  2.85748632E-04  5.37521849E-08 -2.79609470E-07
 -2.57334652E-07  2.55948345E-06 -1.17476128E-05 -3.19290415E-07 -1.18781838E-07
  1.22412723E-06 -6.03257901E-06 -6.87248558E-07  5.69167965E-07  1.70551371E-07
  3.60751503E-10  1.27472094E-07 -3.28788095E-07  1.85475078E-02 -1.06196633E-05
  3.42219321E-06 -2.51965769E-07  8.55914540E-03 -5.10597970E-06  1.79214505E-06
  7.82328412E-08 -1.04457878E-07  3.99163371E-08 -1.22122749E-08  8.67991525E-04
 -3.46065583E-07  8.25654636E-07 -9.74336428E-06 -2.40891455E-02 -1.59735800E-06
  5.17521164E-07 -4.46999004E-06 -1.15200717E-02 -5.84608296E-07 -5.32412720E-08
 -5.17364512E-08  8.82661678E-08 -1.54459392E-07  1.84254679E-07  1.45416493E-03
 -5.62740465E-02  1.07956386E-01  2.15252675E-01 -5.35772721E-05  1.43951598E-01
  1.03118715E-01  9.93336020E-02 -2.69084777E-05  7.42056808E-02  1.04477544E-02
 -6.64172029E-03 -3.09027801E-03 -4.41161621E-06  1.00746061E-02 -2.33183058E-06
  2.07784262E-01 -1.39044586E-02  3.69858482E-02  1.65354966E-01 -4.65671254E-05
  1.38973705E-01  3.54590378E-02  7.63070089E-02 -2.37222014E-05  7.14591182E-02
  8.73569148E-03 -6.66924273E-03 -2.38020239E-03 -4.19663144E-06  7.73949799E-03
 -1.66212087E-06  1.52670135E-01  1.21455298E-01 -5.62764989E-02  1.07961618E-01
 -2.15268704E-01  4.83724727E-05  1.43927073E-01  1.03122610E-01 -9.93397252E-02
  2.24814520E-05  7.41922696E-02  1.04490912E-02 -6.64195709E-03 -3.09195520E-03
 -4.13068105E-06 -1.00730512E-02  2.11710754E-06 -2.60470224E-02 -2.69590048E-02
  2.07785411E-01 -1.39064876E-02  3.69900332E-02 -1.65365760E-01  3.91761664E-05
  1.38947497E-01  3.54621535E-02 -7.63111657E-02  1.77702777E-05  7.14450333E-02
  8.73629395E-03 -6.66906659E-03 -2.38138713E-03 -3.98055752E-06 -7.73766124E-03
  1.30718903E-06 -2.69584637E-02 -1.65359119E-02  1.52665369E-01  1.21446176E-01
 -5.12568873E-02  9.67786441E-02 -3.92980177E-05 -2.12959342E-01 -1.56858629E-01
  9.10352668E-02 -1.79553690E-05 -1.01840912E-01 -8.02728331E-02 -7.24145108E-03
  7.90337149E-03  1.30212630E-03  3.17742383E-06  2.37972008E-06  1.28562488E-02
 -2.00015912E-02 -4.23263620E-02 -2.00021679E-02 -4.23278026E-02  2.08577755E-01
 -6.76677313E-03  2.26146358E-02 -3.28864835E-05 -1.82520350E-01 -1.39831481E-01
  2.04315440E-02 -1.52162876E-05 -8.72846425E-02 -7.17296975E-02 -7.74109145E-03
  6.79598505E-03  1.72632974E-03  2.91244707E-06  2.08237096E-06  1.10185504E-02
 -4.13894773E-02 -4.55192107E-02 -4.13910870E-02 -4.55212552E-02  1.60225270E-01
  1.34216627E-01 -5.12537530E-02  9.67719662E-02  6.19009269E-05  2.12968138E-01
 -1.56841500E-01  9.10335025E-02  2.82801342E-05  1.01848966E-01 -8.02681810E-02
 -7.24101393E-03  7.90483809E-03  1.30063674E-03  5.90883465E-06 -4.20449950E-06
 -1.28552801E-02 -2.00000122E-02 -4.23295021E-02 -2.00020427E-02 -4.23241327E-02
 -1.87303988E-02 -3.45925138E-02  2.08574760E-01 -6.76612091E-03  2.26121641E-02
  4.67870521E-05  1.82534799E-01 -1.39823232E-01  2.04331037E-02  2.11522948E-05
  8.72944638E-02 -7.17290042E-02 -7.74102445E-03  6.79756684E-03  1.72511601E-03
  5.25368378E-06 -3.89141496E-06 -1.10183605E-02 -4.13930386E-02 -4.55266710E-02
 -4.13882223E-02 -4.55169850E-02 -3.45930013E-02 -3.27558413E-02  1.60230498E-01
  1.34226560E-01
Pure Switching                             I                1
Dipole_Data                                R   N=           3
  1.96423311E-05 -6.02671101E-07 -9.17223375E-02
Quadrupole_Data                            R   N=           6
 -7.78029604E+00 -1.31240286E-05 -8.29627761E+00 -2.18737484E-05  4.22745030E-05
 -8.70817919E+00
Octapole_Data                              R   N=          10
 -1.34635943E-04 -2.25016076E-05  6.89955950E-05  1.24948178E-05  6.35418112E-01
 -2.96944041E-04 -6.13757982E-01  6.69314439E-05 -5.33991972E-05 -2.61722534E-01
Hexadecapole_Data                          R   N=          15
 -1.51650705E+01 -4.52109054E-04 -5.62399067E+00  3.22335376E-04 -1.52420183E+01
 -2.81568811E-05  2.14940231E-05 -7.01644201E-05  3.57296377E-05 -4.95679194E+00
  4.20727624E-05 -4.75373034E+00 -1.60428689E-06  1.23382334E-04 -1.51455220E+01
