Jobname.Temp
SP        R                             6-31G(d)            
Number of atoms                            I                5
Charge                                     I                0
Multiplicity                               I                1
Number of electrons                        I               10
Number of alpha electrons                  I                5
Number of beta electrons                   I                5
Atomic numbers                             I   N=           5
           6           1           1           1           1
Current cartesian coordinates              R   N=          15
 -1.66999820E-05 -1.23846286E-05  8.65832046E-02  1.92120894E+00 -2.80393255E-04
  8.46525450E-01 -1.92126816E+00  2.53343501E-04  8.46403066E-01 -2.24220310E-04
 -1.68689325E+00 -1.10625581E+00  3.83639554E-04  1.68699461E+00 -1.10617194E+00
Nuclear charges                            R   N=           5
  6.00000000E+00  1.00000000E+00  1.00000000E+00  1.00000000E+00  1.00000000E+00
Number of basis functions                  I               23
Number of contracted shells                I               12
Number of primitive shells                 I               27
Highest angular momentum                   I                2
Largest degree of contraction              I                6
Shell types                                I   N=          12
           0          -1          -1           2           0           0
           0           0           0           0           0           0
Number of primitives per shell             I   N=          12
           6           3           1           1           3           1
           3           1           3           1           3           1
Shell to atom map                          I   N=          12
           1           1           1           1           2           2
           3           3           4           4           5           5
Primitive exponents                        R   N=          27
  3.04752490E+03  4.57369510E+02  1.03948690E+02  2.92101550E+01  9.28666300E+00
  3.16392700E+00  7.86827240E+00  1.88128850E+00  5.44249300E-01  1.68714400E-01
  8.00000000E-01  1.87311370E+01  2.82539370E+00  6.40121700E-01  1.61277800E-01
  1.87311370E+01  2.82539370E+00  6.40121700E-01  1.61277800E-01  1.87311370E+01
  2.82539370E+00  6.40121700E-01  1.61277800E-01  1.87311370E+01  2.82539370E+00
  6.40121700E-01  1.61277800E-01
Contraction coefficients                   R   N=          27
  1.83470016E-03  1.40373012E-02  6.88426061E-02  2.32184421E-01  4.67941342E-01
  3.62312032E-01 -1.19332409E-01 -1.60854212E-01  1.14345648E+00  1.00000000E+00
  1.00000000E+00  3.34945995E-02  2.34726947E-01  8.13757318E-01  1.00000000E+00
  3.34945995E-02  2.34726947E-01  8.13757318E-01  1.00000000E+00  3.34945995E-02
  2.34726947E-01  8.13757318E-01  1.00000000E+00  3.34945995E-02  2.34726947E-01
  8.13757318E-01  1.00000000E+00
P(S=P) Contraction coefficients            R   N=          27
  0.00000000E+00  0.00000000E+00  0.00000000E+00  0.00000000E+00  0.00000000E+00
  0.00000000E+00  6.89990956E-02  3.16423980E-01  7.44308252E-01  1.00000000E+00
  0.00000000E+00  0.00000000E+00  0.00000000E+00  0.00000000E+00  0.00000000E+00
  0.00000000E+00  0.00000000E+00  0.00000000E+00  0.00000000E+00  0.00000000E+00
  0.00000000E+00  0.00000000E+00  0.00000000E+00  0.00000000E+00  0.00000000E+00
  0.00000000E+00  0.00000000E+00
Coordinates of each shell                  R   N=          36
 -1.66999820E-05 -1.23846286E-05  8.65832046E-02 -1.66999820E-05 -1.23846286E-05
  8.65832046E-02 -1.66999820E-05 -1.23846286E-05  8.65832046E-02 -1.66999820E-05
 -1.23846286E-05  8.65832046E-02  1.92120894E+00 -2.80393255E-04  8.46525450E-01
  1.92120894E+00 -2.80393255E-04  8.46525450E-01 -1.92126816E+00  2.53343501E-04
  8.46403066E-01 -1.92126816E+00  2.53343501E-04  8.46403066E-01 -2.24220310E-04
 -1.68689325E+00 -1.10625581E+00 -2.24220310E-04 -1.68689325E+00 -1.10625581E+00
  3.83639554E-04  1.68699461E+00 -1.10617194E+00  3.83639554E-04  1.68699461E+00
 -1.10617194E+00
Overlap Matrix                             R   N=         276
  1.00000000E+00  2.19058872E-01  1.00000000E+00  1.95336274E-21  2.35564845E-21
  1.00000000E+00  7.44134068E-22  0.00000000E+00  0.00000000E+00  1.00000000E+00
 -8.37285684E-18 -1.07353807E-17 -1.25027088E-37  0.00000000E+00  1.00000000E+00
  1.84261053E-01  8.12273068E-01  2.01350238E-22  5.99206241E-22  1.76776648E-17
  1.00000000E+00  1.81808477E-22 -5.09921751E-23  5.69754058E-01  0.00000000E+00
  2.29550615E-39  0.00000000E+00  1.00000000E+00  8.85713394E-23 -9.12195135E-23
  0.00000000E+00  5.69754058E-01  6.83128875E-39  0.00000000E+00  0.00000000E+00
  1.00000000E+00 -1.92605586E-18  9.26037061E-18  2.29550615E-39  6.83128875E-39
  5.69754058E-01  0.00000000E+00  0.00000000E+00  0.00000000E+00  1.00000000E+00
  7.91027073E-02  7.10235064E-01  0.00000000E+00  0.00000000E+00  0.00000000E+00
  6.29936196E-01  0.00000000E+00  0.00000000E+00  0.00000000E+00  1.00000000E+00
  7.91027073E-02  7.10235064E-01  0.00000000E+00  0.00000000E+00  0.00000000E+00
  6.29936196E-01  0.00000000E+00  0.00000000E+00  0.00000000E+00  3.33333333E-01
  1.00000000E+00  7.91027073E-02  7.10235064E-01  0.00000000E+00  0.00000000E+00
  0.00000000E+00  6.29936196E-01  0.00000000E+00  0.00000000E+00  0.00000000E+00
  3.33333333E-01  3.33333333E-01  1.00000000E+00  4.78593926E-42  0.00000000E+00
  0.00000000E+00  0.00000000E+00  0.00000000E+00  0.00000000E+00  0.00000000E+00
  0.00000000E+00  0.00000000E+00  0.00000000E+00  0.00000000E+00  0.00000000E+00
  1.00000000E+00 -3.93083363E-38  0.00000000E+00  0.00000000E+00  0.00000000E+00
  0.00000000E+00  0.00000000E+00  0.00000000E+00  0.00000000E+00  0.00000000E+00
  0.00000000E+00  0.00000000E+00  0.00000000E+00  0.00000000E+00  1.00000000E+00
 -1.99802925E-38  0.00000000E+00  0.00000000E+00  0.00000000E+00  0.00000000E+00
  0.00000000E+00  0.00000000E+00  0.00000000E+00  0.00000000E+00  0.00000000E+00
  0.00000000E+00  0.00000000E+00  0.00000000E+00  0.00000000E+00  1.00000000E+00
  3.22654588E-02  2.71604305E-01  3.41503031E-01 -4.76392551E-05  1.35081781E-01
  3.75715315E-01  4.78668809E-01 -6.67737135E-05  1.89337808E-01  4.07871557E-01
  1.16515989E-01  1.62101593E-01 -7.03970332E-05  1.99611782E-01 -2.78455994E-05
  1.00000000E+00  9.18319546E-02  4.74640908E-01  2.47062314E-01 -3.44648907E-05
  9.77256842E-02  7.03030507E-01  5.42287423E-01 -7.56484323E-05  2.14502198E-01
  4.20000715E-01  3.50073500E-01  3.61014338E-01 -1.68957421E-05  4.79081154E-02
 -6.68312351E-06  6.58292049E-01  1.00000000E+00  3.22670405E-02  2.71611275E-01
 -3.41517645E-01  4.72352771E-05  1.35063991E-01  3.75719756E-01 -4.78680919E-01
  6.62063181E-05  1.89309561E-01  4.07893313E-01  1.16519659E-01  1.62092185E-01
 -6.98014165E-05 -1.99589342E-01  2.76051854E-05  5.98968292E-03  9.49685244E-02
  1.00000000E+00  9.18331960E-02  4.74645936E-01 -2.47068363E-01  3.41720048E-05
  9.77110252E-02  7.03035538E-01 -5.42298591E-01  7.50052731E-05  2.14469188E-01
  4.20007487E-01  3.50077577E-01  3.61015020E-01 -1.67523958E-05 -4.79016018E-02
  6.62526657E-06  9.49685244E-02  3.04037703E-01  6.58292049E-01  1.00000000E+00
  3.22688893E-02  2.71619422E-01 -3.68896456E-05 -2.99866706E-01 -2.12043845E-01
  3.75724947E-01 -5.17045273E-05 -4.20293176E-01 -2.97200654E-01  1.16523947E-01
  3.41154358E-01  2.28845575E-01  4.78636067E-05  3.38456488E-05  2.75122817E-01
  2.53154511E-02  1.69241621E-01  2.53168937E-02  1.69245453E-01  1.00000000E+00
  9.18346470E-02  4.74651812E-01 -2.66869647E-05 -2.16931664E-01 -1.53398237E-01
  7.03041419E-01 -5.85758427E-05 -4.76148380E-01 -3.36697378E-01  3.50082343E-01
  4.03992338E-01  3.77038882E-01  1.14869877E-05  8.12275919E-06  6.60278786E-02
  1.69241621E-01  4.34045287E-01  1.69245453E-01  4.34051337E-01  6.58292049E-01
  1.00000000E+00  3.22647783E-02  2.71601305E-01  7.11605319E-05  2.99866249E-01
 -2.12012761E-01  3.75713404E-01  9.97431367E-05  4.20311645E-01 -2.97170597E-01
  1.16514417E-01  3.41157860E-01  2.28809969E-01  9.23349243E-05 -6.52830463E-05
 -2.75098874E-01  2.53190328E-02  1.69251134E-01  2.53115463E-02  1.69231250E-01
  1.80244188E-02  1.47824615E-01  1.00000000E+00  9.18314205E-02  4.74638745E-01
  5.14818979E-05  2.16941656E-01 -1.53383048E-01  7.03028343E-01  1.12999964E-04
  4.76175125E-01 -3.36667442E-01  3.50071747E-01  4.03988168E-01  3.77023676E-01
  2.21612021E-05 -1.56685110E-05 -6.60261735E-02  1.69251134E-01  4.34060307E-01
  1.69231250E-01  4.34028910E-01  1.47824615E-01  3.99347926E-01  6.58292049E-01
  1.00000000E+00
Core Hamiltonian Matrix                    R   N=         276
 -1.98812393E+01 -4.08454889E+00 -6.71945104E+00 -1.16547589E-06 -8.51949329E-06
 -6.03311591E+00  1.06084479E-07  1.16297809E-07 -4.38344318E-12 -5.99175731E+00
  9.31056732E-03  6.58393580E-02  1.96461349E-06 -5.51234245E-06 -5.95038455E+00
 -3.51967449E+00 -5.37815133E+00 -8.49155065E-06 -1.04330903E-06  6.17195458E-02
 -5.44218443E+00 -1.95794392E-07 -6.14339367E-06 -3.10508536E+00 -1.24548585E-11
  1.36979735E-06 -1.13125114E-05 -3.81178973E+00  1.78167493E-08 -9.90103006E-07
 -1.24548585E-11 -3.06984377E+00 -3.60640294E-06 -4.88135230E-06 -4.25926032E-11
 -3.75556294E+00  1.56411428E-03  4.38599234E-02  1.36979735E-06 -3.60640294E-06
 -3.03459078E+00  7.04651303E-02  1.39324591E-06 -2.91401306E-06 -3.69931968E+00
 -1.50328921E+00 -4.45199891E+00 -3.37294673E-06 -4.06170408E-07 -2.75252420E-02
 -3.80945481E+00 -1.74496437E-06 -5.74338880E-07 -3.28641397E-02 -4.86944100E+00
 -1.50214056E+00 -4.41659256E+00 -8.40023429E-06 -4.24009961E-06  8.66013723E-02
 -3.77186698E+00 -7.37262201E-06 -5.87896356E-06  7.73314129E-02 -2.28616387E+00
 -4.76815244E+00 -1.50099149E+00 -4.38117400E+00 -8.39287100E-06  4.54362826E-06
  9.54961260E-02 -3.73426659E+00 -7.47548647E-06  3.58585418E-06  7.33460579E-02
 -2.29559365E+00 -2.30318413E+00 -4.66499235E+00  6.91905194E-14 -4.23153238E-12
 -7.03507784E-07 -1.45496326E-05  3.19232389E-05 -1.36955282E-11 -9.94784121E-07
 -1.27697559E-05  3.08237301E-05  2.82591343E-05 -2.17875179E-05 -6.47162971E-06
 -3.65849162E+00  1.04286119E-07  2.99221268E-06 -4.76751177E-02  3.19232389E-05
 -1.45368790E-05  2.85536882E-06 -5.69223597E-02  3.08237301E-05 -1.29479224E-05
  3.17441693E-07  5.55041426E-06  1.97682203E-06 -3.04803464E-06 -3.68678096E+00
 -3.00226030E-07 -8.45723305E-06  3.19232389E-05  1.49997977E-01  7.86979499E-06
 -7.82686164E-06  3.08237301E-05  1.33941936E-01  6.21088162E-06 -1.75978362E-06
 -7.63193369E-06 -1.27246116E-05  9.61359950E-06 -1.12091915E-05 -3.70955239E+00
 -6.19761100E-01 -1.73645043E+00 -1.92240228E+00  2.66891000E-04 -7.49212129E-01
 -1.98515668E+00 -2.11942698E+00  2.94128999E-04 -8.27664099E-01 -2.19852816E+00
 -8.08821302E-01 -1.01743162E+00  3.33723784E-04 -9.40692550E-01  1.30791070E-04
 -4.04173265E+00 -1.75549940E+00 -3.08617716E+00 -1.34800993E+00  1.85176274E-04
 -4.92281081E-01 -3.50870308E+00 -1.96941638E+00  2.68412922E-04 -7.25047271E-01
 -2.47093885E+00 -2.09646810E+00 -2.12862687E+00  8.52902281E-05 -2.44631951E-01
  3.20536887E-05 -2.95974178E+00 -3.89655967E+00 -6.19791232E-01 -1.73649502E+00
  1.92248191E+00 -2.65516409E-04 -7.49112530E-01 -1.98518548E+00  2.11948057E+00
 -2.92857511E-04 -8.27540791E-01 -2.19863207E+00 -8.08844828E-01 -1.01739361E+00
  3.32109371E-04  9.40583068E-01 -1.30791474E-04 -6.02952479E-02 -5.73133755E-01
 -4.04175106E+00 -1.75552300E+00 -3.08620727E+00  1.34803322E+00 -1.85921278E-04
 -4.92202643E-01 -3.50872576E+00  1.96944159E+00 -2.73072624E-04 -7.24929398E-01
 -2.47097357E+00 -2.09648878E+00 -2.12863141E+00  8.57061456E-05  2.44600640E-01
 -3.84097521E-05 -5.73131207E-01 -1.58946693E+00 -2.95975274E+00 -3.89656649E+00
 -6.20433597E-01 -1.74783555E+00  2.07816739E-04  1.69492181E+00  1.20337040E+00
 -1.99997994E+00  2.29576254E-04  1.87142073E+00  1.32735251E+00 -8.15182671E-01
 -1.88692664E+00 -1.35214367E+00 -2.27888628E-04 -1.62005799E-04 -1.32275864E+00
 -1.93373462E-01 -9.34105763E-01 -1.93383576E-01 -9.34124813E-01 -4.07793748E+00
 -1.75611342E+00 -3.10040702E+00  1.41405719E-04  1.17881299E+00  8.59410682E-01
 -3.53213693E+00  2.07215107E-04  1.72452248E+00  1.24900213E+00 -2.11974709E+00
 -2.38190306E+00 -2.23213722E+00 -5.77955693E-05 -4.17784784E-05 -3.56318361E-01
 -9.29578036E-01 -2.08139782E+00 -9.29600333E-01 -2.08142286E+00 -2.98356941E+00
 -3.93127026E+00 -6.20354815E-01 -1.74770971E+00 -4.04802928E-04 -1.69491249E+00
  1.20318897E+00 -1.99989208E+00 -4.46832563E-04 -1.87148741E+00  1.32720675E+00
 -8.15116536E-01 -1.88692514E+00 -1.35195280E+00 -4.44238220E-04  3.15138901E-04
  1.32264517E+00 -1.93393195E-01 -9.34133535E-01 -1.93346601E-01 -9.34041421E-01
 -1.46703696E-01 -8.35121375E-01 -4.07785818E+00 -1.75605175E+00 -3.10031884E+00
 -2.87231804E-04 -1.17886697E+00  8.59325624E-01 -3.53206060E+00 -4.20623632E-04
 -1.72462359E+00  1.24889157E+00 -2.11968439E+00 -2.38187207E+00 -2.23204853E+00
 -1.17492473E-04  8.51625555E-05  3.56300269E-01 -9.29618443E-01 -2.08143742E+00
 -9.29530204E-01 -2.08132526E+00 -8.35133290E-01 -1.96610376E+00 -2.98352027E+00
 -3.93122370E+00
Number of independent functions            I               23
Alpha MO coefficients                      R   N=         529
  9.92789047E-01  4.97220214E-02  3.23044959E-08 -3.13190302E-09 -2.08070135E-04
 -1.42652043E-02 -1.91768111E-07 -2.65075119E-08  9.48104181E-04 -9.24587223E-03
 -9.43958846E-03 -9.42784694E-03 -2.81612219E-08 -1.35125219E-08  2.78516177E-08
 -2.36606324E-04  2.28987982E-03 -2.36656737E-04  2.28981540E-03 -1.02428653E-04
  2.72746397E-03 -1.02386388E-04  2.72733377E-03 -1.97400049E-01  3.78162405E-01
  4.34794082E-06 -2.48605099E-06 -3.12570049E-02  3.57009095E-01  3.36607582E-06
  4.85570879E-07 -1.39538248E-02  9.05148824E-03  2.37053928E-03 -5.91510642E-03
  3.69219841E-07 -3.18350402E-07  1.02551704E-06  1.32937150E-01  4.08621968E-02
  1.32937201E-01  4.08634623E-02  1.37938348E-01  3.73413229E-02  1.37931094E-01
  3.73400623E-02  3.19851116E-06 -7.10222687E-06  4.44944380E-01  4.35115814E-06
 -7.53329951E-06 -6.00864877E-06  2.01996150E-01  1.19642291E-06 -3.56073502E-06
 -2.15171107E-06  1.46456539E-06  1.47754387E-06 -1.83849426E-07  1.64596183E-02
 -7.00444040E-06  2.42871569E-01  1.77036704E-01 -2.42891412E-01 -1.77049729E-01
 -2.94729695E-05 -2.35233793E-05  5.15756482E-05  3.84611199E-05 -1.09294924E-06
  1.58266324E-06 -5.06844062E-06  4.46906887E-01  4.84186746E-05  6.69775580E-06
 -2.95622006E-06  2.12441210E-01  2.15770266E-05  2.67399010E-06 -2.02382213E-07
 -2.24662697E-06  2.45974245E-06 -7.77145755E-06 -2.79643786E-02 -2.57183230E-05
 -2.06484329E-05  5.52429565E-05  4.71824214E-05 -2.37663851E-01 -2.05988901E-01
  2.37640154E-01  2.05971817E-01 -1.55154118E-02  3.46690278E-02  6.93010590E-06
 -4.42404861E-05  4.48023010E-01  3.67570100E-02  3.86348350E-06 -2.55400029E-05
  2.42900812E-01  2.86347013E-02 -2.12107084E-02 -1.04366051E-02 -9.03711172E-06
  3.14292799E-06  1.49027077E-06  1.63021985E-01  1.66376350E-01  1.62994183E-01
  1.66347290E-01 -1.69489131E-01 -1.62798178E-01 -1.69523839E-01 -1.62834869E-01
  1.56110531E-01 -1.93583671E-01 -9.09424318E-06 -7.07629346E-06 -8.81932718E-02
 -2.40307354E+00 -3.77688812E-05 -2.12246328E-05 -1.51053864E-01  2.08658954E-02
  2.37570071E-03  1.22057615E-02 -3.48166972E-06  6.78856203E-07 -5.65763811E-07
  7.96780956E-02  1.14826925E+00  7.96759918E-02  1.14821741E+00 -1.84590724E-02
  6.55305167E-01 -1.84560641E-02  6.55319650E-01 -4.55348495E-02  3.68200598E-02
  2.92458301E-06  5.91554621E-05 -3.40506956E-01  9.37968161E-01  3.93209514E-05
  1.63851402E-04 -1.11609342E+00  2.37908281E-02 -2.57799449E-02 -8.62344446E-03
 -8.63420924E-06  2.06676011E-06  1.75819603E-06  1.22345099E-01  5.09524567E-01
  1.22334657E-01  5.09465521E-01 -8.59230177E-02 -1.26773469E+00 -8.59536032E-02
 -1.26801354E+00  7.55319122E-06 -5.92640588E-06  2.56203053E-05  3.94498947E-01
  4.65285530E-05 -2.00687173E-04  8.31412990E-05  1.34266881E+00  1.91667292E-04
 -2.24990351E-06  1.70657567E-06  2.51022790E-06 -1.60179447E-06  5.26768009E-06
  1.51172910E-02 -1.73617528E-06  1.02519483E-04 -2.37722704E-05 -2.08142984E-04
  1.00272329E-01  1.52522380E+00 -1.00261050E-01 -1.52483414E+00 -2.64011307E-06
  7.60999821E-06 -4.08006818E-01  2.35157241E-05 -6.34880724E-06  3.67365358E-05
 -1.62199303E+00  9.71883599E-05 -7.53709448E-06 -1.35443711E-06  3.84492875E-07
  7.48258897E-07  3.98208469E-07  1.26468525E-02 -1.81972564E-06  4.40900618E-02
  1.77525784E+00 -4.40963892E-02 -1.77537095E+00 -4.78647204E-06 -1.25238601E-04
  1.65045256E-06  2.01573602E-04 -2.50893839E-03  9.02704682E-02 -2.66646928E-05
  9.62004418E-05  7.87243283E-01 -2.35896997E-03  7.31913015E-05 -2.23731716E-04
 -1.05892530E+00  1.01857056E-01 -6.13679932E-02 -1.22755023E-02 -2.91521874E-05
  5.24682214E-06 -1.69835183E-05  3.09878249E-01 -2.16342821E-01  3.09873337E-01
 -2.16280352E-01 -2.41696429E-01  8.41163223E-02 -2.41559202E-01  8.42008075E-02
 -1.19054779E-06 -3.06417397E-05  4.48310860E-05  7.58659274E-01 -1.16840156E-04
  6.68212175E-05 -1.00921322E-04 -1.46966721E+00  1.13538084E-04 -1.77070566E-05
  1.69763252E-05 -3.22712087E-06  8.45892582E-06 -2.62279397E-05 -9.99202264E-02
 -9.71444904E-05  2.74111161E-05 -1.46782416E-05  4.64111659E-05 -4.07025218E-01
 -2.01488445E-01  4.07094806E-01  2.01411976E-01  2.45356041E-06  2.35467852E-05
 -7.92330157E-01  4.54248272E-05 -3.45570146E-05 -5.76135273E-05  2.17397787E+00
 -1.14356348E-04  6.07073250E-05  1.08872106E-05  5.51946488E-07 -5.34816811E-06
 -5.36118761E-08 -1.13199565E-01  2.92053306E-05 -3.99664738E-01 -8.11839193E-01
  3.99700781E-01  8.11866710E-01  5.31558276E-05  6.54099916E-05 -2.34548830E-05
 -1.07214975E-04 -3.20886849E-02  9.28766479E-02 -7.23221876E-06 -9.96393956E-05
  7.70926462E-01  5.72303667E-02  3.53356379E-05  1.45810123E-04 -1.17517267E+00
 -1.96677051E-01  1.32823362E-01  5.92538030E-02  5.49724702E-05 -1.96787567E-05
 -1.63573867E-05 -6.28771919E-01  1.05683441E+00 -6.28691830E-01  1.05673568E+00
  3.04176925E-01 -9.43663210E-01  3.04321141E-01 -9.43923229E-01  1.69288869E-05
 -1.80614982E-04 -4.38204060E-06 -8.51420314E-01 -7.24366932E-05  2.78715802E-04
  2.66126578E-07  1.22295133E+00  1.26740489E-04  1.65157431E-05  3.20102730E-06
 -3.39665055E-05  1.68039065E-05 -5.96753822E-05 -2.00359985E-01  2.41373288E-05
  3.33115121E-05  2.48158657E-04 -4.07994193E-04 -7.27716282E-01  1.39397275E+00
  7.27898779E-01 -1.39405579E+00  2.64908670E-05 -7.35315509E-05  8.68098281E-01
 -7.17588874E-06  4.29288070E-05 -2.40063786E-05 -1.16818386E+00  1.13308904E-05
  4.32363114E-06  2.57747969E-05  1.20497999E-05 -3.32361403E-05 -7.64303607E-07
 -1.96785256E-01  6.45947897E-05 -7.81564676E-01  1.32705557E+00  7.81843579E-01
 -1.32720992E+00  2.80444257E-04 -2.47962443E-04  5.15717459E-05  1.38176518E-04
  9.14885744E-02 -8.75407755E-01 -1.81956251E-04  1.49986332E-04  2.35140542E-01
  1.32470279E+00  1.80973481E-04 -2.10169694E-04 -1.60692586E-01 -2.85302162E-02
  5.42385570E-02 -1.03108110E-01  3.41942175E-05  4.37149367E-05  4.49203769E-05
  4.63669786E-01 -3.93697872E-01  4.63319556E-01 -3.93228944E-01  7.62260776E-01
 -7.40314634E-01  7.62016994E-01 -7.39841538E-01 -9.75525724E-02 -1.97734679E+00
  2.48772557E-05 -3.40283615E-06  3.88854524E-02  5.23253117E+00  8.58957894E-05
  6.45039998E-06 -5.18842820E-01 -1.42504897E-01 -2.15193463E-01  1.16943199E-02
 -4.42966519E-05 -2.36984559E-05 -2.34207004E-06 -2.15760392E-01 -8.97360232E-01
 -2.15626117E-01 -8.97430646E-01 -3.70145379E-01 -1.06058259E+00 -3.70188394E-01
 -1.06047194E+00 -4.18381562E-06 -3.85238847E-05  1.42322457E-06  1.04451254E-06
  4.25064458E-07  1.23637691E-04  3.42982285E-06  2.47587309E-06 -1.69744237E-05
  2.34872260E-04 -3.46300276E-04  1.07915972E-04  9.99999935E-01  6.24803387E-06
  7.51832969E-05 -2.14202187E-05 -1.59401443E-05 -1.42127773E-05 -1.51968228E-05
 -1.96915455E-05 -2.37730956E-05 -2.79383838E-05 -2.26980569E-05  3.69874957E-02
  3.29388051E-01  1.56945079E-06  4.14117522E-06  4.66903713E-03 -1.07057142E+00
 -4.64640816E-05 -1.11896941E-05  1.53827487E-01 -2.67115536E-01 -6.82156655E-01
  9.76692584E-01 -1.84832994E-04 -4.97457177E-05 -5.56785311E-05  1.57207512E-01
  1.33997263E-01  1.57182405E-01  1.33972564E-01  2.17539691E-01  1.99498121E-01
  2.17550009E-01  1.99485205E-01 -1.17371961E-06  1.06432011E-05 -9.41746165E-02
  1.70443699E-05 -4.32426397E-06 -6.58021574E-07 -7.48687179E-01  8.16781880E-05
 -1.60648385E-05  5.22747112E-05  9.27518871E-06 -6.43228974E-05  6.24428347E-06
 -1.07230088E+00  1.68165435E-04  5.83286750E-01  1.90921073E-01 -5.83292596E-01
 -1.90935880E-01 -1.47210554E-05 -5.86392287E-06 -1.55849535E-05  3.63732528E-05
  4.86241942E-06 -1.36668806E-05  2.15277538E-05  1.46465118E-01 -1.74585345E-06
 -5.17625934E-05  1.16970079E-04  4.28731530E-01 -1.41021964E-06 -1.40829215E-04
  1.68439202E-04 -1.52159952E-05  8.62972184E-05 -1.82195783E-04 -1.13058709E+00
  7.89142510E-05 -5.45399529E-05  8.92532636E-05  2.90983691E-06  6.70663159E-01
 -7.47843732E-02 -6.70724707E-01  7.48455280E-02  1.32879270E-02 -1.00288756E-02
  1.59324650E-05 -2.87445772E-05 -1.53171301E-01 -1.09221366E-01  4.21946625E-05
 -5.90214429E-05 -1.95269648E-01 -1.11040714E+00  8.57040343E-01  3.01654279E-01
  3.49788093E-04 -4.34061035E-05  1.74699774E-04  5.84672626E-01 -2.02513529E-01
  5.84709155E-01 -2.02482999E-01 -4.25579484E-01  1.76305391E-01 -4.25373559E-01
  1.76285534E-01  4.85461731E-01 -2.95349248E+00  2.66856907E-06 -2.63751858E-06
 -2.88490265E-02 -2.36552993E+00 -2.87461993E-05 -4.24582923E-06  1.51121826E-01
  1.90030593E+00  1.85247379E+00  1.87337933E+00 -9.57080103E-06 -3.12507778E-06
  6.67191739E-06 -1.46940835E-01  4.49580968E-01 -1.46955645E-01  4.49578637E-01
 -1.15384770E-01  5.02656932E-01 -1.15363181E-01  5.02626990E-01
Alpha Orbital Energies                     R   N=          23
 -1.01675077E+01 -6.94008519E-01 -4.26332665E-01 -3.89662316E-01 -3.44868486E-01
  1.10337139E-01  1.43683823E-01  1.80497104E-01  1.93752791E-01  5.16587403E-01
  5.35313322E-01  5.95959722E-01  8.38593009E-01  9.00254425E-01  9.42262796E-01
  9.59618828E-01  1.07724993E+00  1.64181023E+00  1.72688073E+00  2.05875900E+00
  2.25334310E+00  2.34396265E+00  4.16748240E+00
Total SCF Density                          R   N=         276
  2.04967520E+00 -5.16474067E-02  2.93362051E-01  9.78858949E-07 -2.54801983E-06
  3.95951002E-01  1.37122801E-06 -3.53357837E-06 -6.58830124E-07  3.99451536E-01
 -1.97539407E-03  7.40390503E-03 -7.66416214E-07  3.79111553E-06  4.03403328E-01
 -1.70412503E-01  2.71144906E-01 -1.73404978E-06  9.59201853E-07  1.06238395E-02
  2.58020136E-01 -5.37404360E-07 -7.45914306E-08  1.79754103E-01 -8.84834410E-07
  2.07830651E-07  2.65443357E-07  8.16048893E-02  8.38238959E-08 -7.33852056E-07
 -1.08915779E-06  1.89882882E-01 -2.34313628E-06  1.31565875E-06 -7.72894360E-07
  9.02625368E-02 -1.45906042E-04  6.38292955E-03  7.65003548E-08 -2.13691343E-06
  2.18522223E-01  7.86628094E-03  3.43946557E-07 -3.25328549E-06  1.18392826E-01
 -2.28204882E-02  7.91189276E-03 -1.43981427E-06 -1.88542761E-07  2.50960132E-02
  8.83176783E-03 -5.83549003E-07 -3.17254024E-07  1.36406467E-02  1.97472345E-03
 -1.90207434E-02 -6.16522465E-04  1.02932147E-06  1.68413739E-06 -1.91500346E-02
  4.02639026E-04  4.47359148E-07  1.00026053E-06 -1.03882522E-02 -9.97256330E-04
  1.08923888E-03 -1.60605853E-02 -6.13493888E-03  1.11817271E-06 -1.05514274E-06
 -8.97797836E-03 -4.72175010E-03  4.80080855E-07 -4.26691510E-07 -4.92292024E-03
 -5.30441852E-04  5.92681584E-04  4.65591029E-04  7.87381329E-08 -3.50155698E-07
 -1.63752519E-07  2.19934786E-06 -8.12049673E-06 -3.99886119E-07 -7.43556284E-08
  1.04556286E-06 -4.40049355E-06 -5.10331316E-07  3.85647709E-07  1.84784987E-07
  1.75781276E-10  1.06636491E-07 -2.58020017E-07  1.46472294E-02 -6.80327550E-06
  2.58737207E-06 -1.93777422E-07  6.64955912E-03 -3.26273121E-06  1.41814626E-06
  1.03606142E-07 -8.63661569E-08 -1.29075200E-08 -6.14745461E-09  5.41838209E-04
 -3.34734511E-07  7.93309243E-07 -5.94967162E-06 -2.49949470E-02 -1.43666034E-06
  4.66486016E-07 -2.66438387E-06 -1.18815729E-02 -5.11317398E-07 -4.61259969E-08
 -4.75846874E-08  8.18663739E-08 -1.37593942E-07  2.04075845E-07  1.56401304E-03
 -5.80105531E-02  1.11820313E-01  2.16132095E-01 -3.59591655E-05  1.37761204E-01
  1.06907776E-01  9.81203985E-02 -1.85441597E-05  7.54842024E-02  1.17460598E-02
 -6.28017975E-03 -4.97028774E-03 -2.93774652E-06  7.99608713E-03 -1.20542577E-06
  2.06470218E-01 -1.67473267E-02  4.26665059E-02  1.57545635E-01 -3.18395509E-05
  1.46522784E-01  4.13398871E-02  7.15230251E-02 -1.68084779E-05  7.96886134E-02
  1.02248957E-02 -6.90690205E-03 -3.99887102E-03 -3.04227580E-06  5.82893320E-03
 -7.45415958E-07  1.51103495E-01  1.21396095E-01 -5.80129182E-02  1.11825319E-01
 -2.16142922E-01  3.21803379E-05  1.37743615E-01  1.06911609E-01 -9.81241059E-02
  1.46939289E-05  7.54741573E-02  1.17465603E-02 -6.28042205E-03 -4.97114291E-03
 -2.75823119E-06 -7.99486078E-03  1.07142342E-06 -2.94948711E-02 -2.09015093E-02
  2.06471400E-01 -1.67493177E-02  4.26704715E-02 -1.57551903E-01  2.57097938E-05
  1.46502008E-01  4.13429123E-02 -7.15251680E-02  1.11658710E-05  7.96769852E-02
  1.02247797E-02 -6.90669927E-03 -3.99932486E-03 -2.91121876E-06 -5.82732310E-03
  4.21159280E-07 -2.09007016E-02 -3.98606469E-03  1.51098469E-01  1.21386191E-01
 -4.94015469E-02  9.25632105E-02 -2.49681603E-05 -2.12412913E-01 -1.60516113E-01
  8.60304015E-02 -1.08826552E-05 -1.00970401E-01 -8.61980805E-02 -7.20882344E-03
  7.84597549E-03  1.90894140E-03  1.99607646E-06  1.57055445E-06  1.32920220E-02
 -1.85886907E-02 -4.51261281E-02 -1.85891016E-02 -4.51272982E-02  2.08475342E-01
 -4.27455356E-03  1.72246382E-02 -2.07766311E-05 -1.84101498E-01 -1.48230098E-01
  1.46138606E-02 -9.29296186E-06 -8.75127109E-02 -8.01334450E-02 -8.69890241E-03
  7.03175853E-03  2.90586205E-03  1.95652071E-06  1.38012144E-06  1.15202951E-02
 -4.31533879E-02 -5.11071674E-02 -4.31548327E-02 -5.11088977E-02  1.63398318E-01
  1.40672976E-01 -4.93985603E-02  9.25568246E-02  4.23374491E-05  2.12420357E-01
 -1.60500732E-01  8.60290348E-02  1.90498388E-05  1.00977917E-01 -8.61942280E-02
 -7.20840164E-03  7.84722048E-03  1.90761545E-03  4.33491948E-06 -3.14921028E-06
 -1.32911416E-02 -1.85870148E-02 -4.51292010E-02 -1.85892022E-02 -4.51232850E-02
 -1.74400598E-02 -3.24056261E-02  2.08472349E-01 -4.27407596E-03  1.72224308E-02
  3.02061617E-05  1.84114670E-01 -1.48223003E-01  1.46157846E-02  1.33123135E-05
  8.75221581E-02 -8.01334572E-02 -8.69882119E-03  7.03314492E-03  2.90479441E-03
  3.98379468E-06 -2.98269645E-06 -1.15201569E-02 -4.31567672E-02 -5.11145456E-02
 -4.31517238E-02 -5.11042822E-02 -3.24059378E-02 -2.90338463E-02  1.63403290E-01
  1.40682608E-01
Pure Switching                             I                1
Dipole_Data                                R   N=           3
  2.12633657E-05 -5.42209521E-07 -1.65994117E-01
Quadrupole_Data                            R   N=           6
 -7.51170271E+00 -1.18669927E-05 -8.33055480E+00 -2.06877028E-05  4.17849017E-05
 -8.99313719E+00
Octapole_Data                              R   N=          10
 -9.76072610E-05 -1.90088232E-05  5.67240946E-05 -4.00031057E-07  5.06322421E-01
 -1.74643971E-04 -5.79436416E-01  3.59087525E-05 -4.40299427E-05 -4.03078835E-01
Hexadecapole_Data                          R   N=          15
 -1.51632420E+01 -3.50340426E-04 -5.71538787E+00  2.17163969E-04 -1.53597510E+01
 -8.79554177E-06  2.46846611E-05 -5.61920769E-05  4.02393823E-05 -5.11584257E+00
  4.83115621E-05 -4.73691043E+00 -2.73007923E-05  1.12413167E-04 -1.47656336E+01
