Jobname.Temp
SP        R                             6-31G(d)            
Number of atoms                            I                5
Charge                                     I                0
Multiplicity                               I                1
Number of electrons                        I               10
Number of alpha electrons                  I                5
Number of beta electrons                   I                5
Atomic numbers                             I   N=           5
           6           1           1           1           1
Current cartesian coordinates              R   N=          15
 -3.10985697E-02 -1.29433086E-05  1.58568731E-05  1.31709211E+00  4.81921735E-04
 -1.56555173E+00  1.31729061E+00 -4.48632966E-04  1.56538479E+00 -1.22389806E+00
 -1.68692172E+00 -3.95870491E-04 -1.22389324E+00  1.68696609E+00  4.67677054E-04
Nuclear charges                            R   N=           5
  6.00000000E+00  1.00000000E+00  1.00000000E+00  1.00000000E+00  1.00000000E+00
Number of basis functions                  I               23
Number of contracted shells                I               12
Number of primitive shells                 I               27
Highest angular momentum                   I                2
Largest degree of contraction              I                6
Shell types                                I   N=          12
           0          -1          -1           2           0           0
           0           0           0           0           0           0
Number of primitives per shell             I   N=          12
           6           3           1           1           3           1
           3           1           3           1           3           1
Shell to atom map                          I   N=          12
           1           1           1           1           2           2
           3           3           4           4           5           5
Primitive exponents                        R   N=          27
  3.04752490E+03  4.57369510E+02  1.03948690E+02  2.92101550E+01  9.28666300E+00
  3.16392700E+00  7.86827240E+00  1.88128850E+00  5.44249300E-01  1.68714400E-01
  8.00000000E-01  1.87311370E+01  2.82539370E+00  6.40121700E-01  1.61277800E-01
  1.87311370E+01  2.82539370E+00  6.40121700E-01  1.61277800E-01  1.87311370E+01
  2.82539370E+00  6.40121700E-01  1.61277800E-01  1.87311370E+01  2.82539370E+00
  6.40121700E-01  1.61277800E-01
Contraction coefficients                   R   N=          27
  1.83470016E-03  1.40373012E-02  6.88426061E-02  2.32184421E-01  4.67941342E-01
  3.62312032E-01 -1.19332409E-01 -1.60854212E-01  1.14345648E+00  1.00000000E+00
  1.00000000E+00  3.34945995E-02  2.34726947E-01  8.13757318E-01  1.00000000E+00
  3.34945995E-02  2.34726947E-01  8.13757318E-01  1.00000000E+00  3.34945995E-02
  2.34726947E-01  8.13757318E-01  1.00000000E+00  3.34945995E-02  2.34726947E-01
  8.13757318E-01  1.00000000E+00
P(S=P) Contraction coefficients            R   N=          27
  0.00000000E+00  0.00000000E+00  0.00000000E+00  0.00000000E+00  0.00000000E+00
  0.00000000E+00  6.89990956E-02  3.16423980E-01  7.44308252E-01  1.00000000E+00
  0.00000000E+00  0.00000000E+00  0.00000000E+00  0.00000000E+00  0.00000000E+00
  0.00000000E+00  0.00000000E+00  0.00000000E+00  0.00000000E+00  0.00000000E+00
  0.00000000E+00  0.00000000E+00  0.00000000E+00  0.00000000E+00  0.00000000E+00
  0.00000000E+00  0.00000000E+00
Coordinates of each shell                  R   N=          36
 -3.10985697E-02 -1.29433086E-05  1.58568731E-05 -3.10985697E-02 -1.29433086E-05
  1.58568731E-05 -3.10985697E-02 -1.29433086E-05  1.58568731E-05 -3.10985697E-02
 -1.29433086E-05  1.58568731E-05  1.31709211E+00  4.81921735E-04 -1.56555173E+00
  1.31709211E+00  4.81921735E-04 -1.56555173E+00  1.31729061E+00 -4.48632966E-04
  1.56538479E+00  1.31729061E+00 -4.48632966E-04  1.56538479E+00 -1.22389806E+00
 -1.68692172E+00 -3.95870491E-04 -1.22389806E+00 -1.68692172E+00 -3.95870491E-04
 -1.22389324E+00  1.68696609E+00  4.67677054E-04 -1.22389324E+00  1.68696609E+00
  4.67677054E-04
Overlap Matrix                             R   N=         276
  1.00000000E+00  2.19058872E-01  1.00000000E+00 -3.73190136E-19  5.05391390E-18
  1.00000000E+00  1.43488116E-21  2.36384650E-21  1.15168742E-38  1.00000000E+00
 -2.94679500E-22  0.00000000E+00  0.00000000E+00  0.00000000E+00  1.00000000E+00
  1.84261053E-01  8.12273068E-01 -4.00705091E-18  0.00000000E+00  2.91607341E-21
  1.00000000E+00  1.51478865E-19 -2.41952463E-18  5.69754058E-01  0.00000000E+00
 -8.31121996E-39  0.00000000E+00  1.00000000E+00  1.27412409E-22  0.00000000E+00
  0.00000000E+00  5.69754058E-01  0.00000000E+00  1.39167034E-21  0.00000000E+00
  1.00000000E+00 -1.77436659E-22  2.49426387E-21 -8.31121996E-39  0.00000000E+00
  5.69754058E-01  0.00000000E+00  0.00000000E+00  0.00000000E+00  1.00000000E+00
  7.91027073E-02  7.10235064E-01 -2.72466502E-18 -4.12689402E-22  2.48721178E-21
  6.29936196E-01  0.00000000E+00  8.76663519E-22 -1.75332704E-21  1.00000000E+00
  7.91027073E-02  7.10235064E-01 -9.08221674E-19 -1.23806821E-21  2.48721178E-21
  6.29936196E-01  0.00000000E+00  2.62999056E-21 -1.75332704E-21  3.33333333E-01
  1.00000000E+00  7.91027073E-02  7.10235064E-01 -9.08221674E-19 -4.12689402E-22
  7.46163533E-21  6.29936196E-01  0.00000000E+00  8.76663519E-22 -5.25998112E-21
  3.33333333E-01  3.33333333E-01  1.00000000E+00  4.99507312E-39 -2.64826647E-39
 -7.14799012E-22 -1.57308608E-18  0.00000000E+00  0.00000000E+00  1.51842576E-21
  0.00000000E+00  0.00000000E+00  0.00000000E+00  0.00000000E+00  0.00000000E+00
  1.00000000E+00 -9.80160360E-39  0.00000000E+00  4.30797716E-21  0.00000000E+00
 -1.57308608E-18  0.00000000E+00 -3.03685151E-21  0.00000000E+00  0.00000000E+00
  0.00000000E+00  0.00000000E+00  0.00000000E+00  0.00000000E+00  1.00000000E+00
 -4.78593926E-42  0.00000000E+00  0.00000000E+00  4.30797716E-21 -7.14799012E-22
 -1.21331492E-41  0.00000000E+00 -3.03685151E-21  1.51842576E-21  0.00000000E+00
  0.00000000E+00  0.00000000E+00  0.00000000E+00  0.00000000E+00  1.00000000E+00
  3.22654588E-02  2.71604305E-01  2.39644524E-01  8.79635942E-05 -2.78283855E-01
  3.75715315E-01  3.35898509E-01  1.23294452E-04 -3.90057451E-01  2.59988668E-01
  1.16516003E-01  3.09984467E-01  9.12147995E-05 -2.88569451E-01 -1.05921911E-04
  1.00000000E+00  9.18319546E-02  4.74640908E-01  1.73372197E-01  6.36377636E-05
 -2.01326041E-01  7.03030507E-01  3.80541898E-01  1.39681193E-04 -4.41898962E-01
  3.84507868E-01  3.50073503E-01  3.96507182E-01  2.18921403E-05 -6.92585299E-02
 -2.54219421E-05  6.58292049E-01  1.00000000E+00  3.22670405E-02  2.71611275E-01
  2.39686843E-01 -7.74472831E-05  2.78256710E-01  3.75719756E-01  3.35951949E-01
 -1.08552332E-04  3.90012580E-01  2.60039640E-01  1.16519668E-01  3.09945848E-01
 -8.03220908E-05  2.88585472E-01 -9.32473407E-05  3.03286447E-02  1.81816906E-01
  1.00000000E+00  9.18331960E-02  4.74645936E-01  1.73399638E-01 -5.60286526E-05
  2.01302717E-01  7.03035538E-01  3.80600650E-01 -1.22979158E-04  4.41846049E-01
  3.84522488E-01  3.50077580E-01  3.96500017E-01 -1.92773660E-05  6.92607440E-02
 -2.23794363E-05  1.81816906E-01  4.53625125E-01  6.58292049E-01  1.00000000E+00
  3.22688893E-02  2.71619422E-01 -2.12036820E-01 -2.99871667E-01 -7.31903070E-05
  3.75724947E-01 -2.97190808E-01 -4.20300129E-01 -1.02583534E-04  2.28838133E-01
  3.41161791E-01  1.16523956E-01  2.75118254E-01  6.71486894E-05  9.49645887E-05
  1.59636998E-02  1.40824307E-01  1.59646122E-02  1.40827525E-01  1.00000000E+00
  9.18346470E-02  4.74651812E-01 -1.53393155E-01 -2.16935253E-01 -5.29478423E-05
  7.03041419E-01 -3.36686223E-01 -4.76156258E-01 -1.16216457E-04  3.77037096E-01
  4.03994122E-01  3.50082346E-01  6.60267834E-02  1.61152956E-05  2.27909499E-05
  1.40824307E-01  3.87591464E-01  1.40827525E-01  3.87596921E-01  6.58292049E-01
  1.00000000E+00  3.22647783E-02  2.71601305E-01 -2.12019787E-01  2.99861279E-01
  8.03112396E-05  3.75713404E-01 -2.97180446E-01  4.20304678E-01  1.12569352E-04
  2.28817412E-01  3.41150414E-01  1.16514421E-01 -2.75103431E-01 -7.36803954E-05
  1.04206772E-04  1.59659094E-02  1.40832101E-01  1.59622660E-02  1.40819249E-01
  1.80244188E-02  1.47824615E-01  1.00000000E+00  9.18314205E-02  4.74638745E-01
 -1.53388132E-01  2.16938060E-01  5.81020817E-05  7.03028343E-01 -3.36678599E-01
  4.76167232E-01  1.27530907E-04  3.77025463E-01  4.03986381E-01  3.50071747E-01
 -6.60272673E-02 -1.76839494E-05  2.50105509E-05  1.40832101E-01  3.87604679E-01
  1.40819249E-01  3.87582889E-01  1.47824615E-01  3.99347926E-01  6.58292049E-01
  1.00000000E+00
Core Hamiltonian Matrix                    R   N=         276
 -1.98812393E+01 -4.08454889E+00 -6.71945104E+00 -3.34373538E-03 -2.36452834E-02
 -6.01107558E+00  4.62565441E-08 -3.06883019E-07 -5.87218350E-06 -5.99175731E+00
  1.19208334E-06  8.65595029E-06 -2.21118519E-06 -4.97935304E-10 -5.97242488E+00
 -3.51967449E+00 -5.37815133E+00 -2.21660253E-02 -1.44020918E-06  8.52548727E-06
 -5.44218443E+00 -5.61725629E-04 -1.57519689E-02 -3.08630484E+00 -3.91319724E-06
 -1.44374782E-06 -2.53079320E-02 -3.78182608E+00  7.76604765E-09 -1.27219622E-06
 -3.91319724E-06 -3.06984377E+00 -3.20752040E-10 -5.33513101E-06 -3.40394732E-06
 -3.75556294E+00  2.00263882E-07  6.14722730E-06 -1.44374782E-06 -3.20752040E-10
 -3.05337129E+00  1.10502869E-05 -1.15670596E-06 -2.42177172E-10 -3.72928332E+00
 -1.50267708E+00 -4.43313058E+00 -3.98564264E-02  1.19206655E-06 -3.17890027E-06
 -3.78942396E+00 -3.17103370E-02  3.90017909E-07 -3.55266836E-06 -4.76933432E+00
 -1.50214056E+00 -4.41659256E+00  5.38320796E-02 -3.14772237E-07  2.30806651E-06
 -3.77186699E+00  5.42355349E-02 -1.96771334E-06  1.46277951E-06 -2.31630521E+00
 -4.76815244E+00 -1.50160362E+00 -4.40004232E+00 -6.94882170E-02 -1.97351037E-06
  2.13266098E-05 -3.75429744E+00 -6.48370461E-02 -2.04752704E-06  1.86763038E-05
 -2.31562653E+00 -2.27304280E+00 -4.72503326E+00 -3.17530385E-07 -8.99075177E-06
  2.06471984E-06  9.32398970E-02  5.90174598E-05 -8.39343601E-06  6.75530834E-07
  9.39387021E-02  5.69846658E-05 -1.06735059E-05 -9.45073216E-06 -3.40401772E-06
 -3.74891562E+00 -1.20523701E-07 -3.39323434E-06 -5.50601678E-06  5.90174598E-05
 -1.20357122E-01 -3.13735776E-06 -6.15340210E-06  5.69846658E-05 -1.12301058E-01
 -1.29510520E-05  2.90366160E-07  3.78778711E-06  7.44201976E-06 -3.74687960E+00
 -2.72813288E-11 -7.65254788E-10  5.90174598E-05  3.99768846E-06 -3.41822024E-06
 -7.03092091E-10  5.69846658E-05  2.53360842E-06 -3.54642086E-06  4.29665211E-06
 -3.09524481E-05  2.66537960E-05  5.02928943E-07 -5.89593164E-06 -3.61912841E+00
 -6.20133775E-01 -1.74301652E+00 -1.35593015E+00 -4.96463667E-04  1.56685909E+00
 -1.99367846E+00 -1.49572743E+00 -5.47891089E-04  1.72908674E+00 -1.50079765E+00
 -8.09434457E-01 -1.73150279E+00 -4.36994865E-04  1.37937779E+00  5.06381986E-04
 -4.06257244E+00 -1.75585370E+00 -3.09478447E+00 -9.56658444E-01 -3.46984793E-04
  1.08807281E+00 -3.52275018E+00 -1.39667551E+00 -5.08660428E-04  1.58964645E+00
 -2.29011553E+00 -2.09441763E+00 -2.33429791E+00 -1.17512606E-04  3.63299790E-01
  1.35991445E-04 -2.97345890E+00 -3.91675625E+00 -6.20163951E-01 -1.74306242E+00
 -1.35616972E+00  4.35915569E-04 -1.56670454E+00 -1.99370904E+00 -1.49596774E+00
  4.80957619E-04 -1.72888868E+00 -1.50104752E+00 -8.09458591E-01 -1.73132169E+00
  3.83213334E-04 -1.37944986E+00  4.44673301E-04 -2.25016021E-01 -9.91270730E-01
 -4.06259524E+00 -1.75587731E+00 -3.09481548E+00 -9.56808241E-01  3.02222393E-04
 -1.08793752E+00 -3.52277479E+00 -1.39688821E+00  4.40214434E-04 -1.58944200E+00
 -2.29019412E+00 -2.09443919E+00 -2.33426018E+00  9.68702960E-05 -3.63312756E-01
  1.18984816E-04 -9.91266618E-01 -2.15571238E+00 -2.97347273E+00 -3.91676692E+00
 -6.19882102E-01 -1.73616365E+00  1.18978768E+00  1.68473972E+00  4.11970820E-04
 -1.98443294E+00  1.31213120E+00  1.85733928E+00  4.54033400E-04 -1.34110794E+00
 -1.87622742E+00 -8.06328373E-01 -1.30703687E+00 -3.19821161E-04 -4.52841761E-04
 -1.32120013E-01 -7.95440182E-01 -1.32126982E-01 -7.95456533E-01 -4.03963370E+00
 -1.75563262E+00 -3.08724209E+00  8.22486901E-01  1.17535060E+00  2.90624855E-04
 -3.50982234E+00  1.20399676E+00  1.71619639E+00  4.23805300E-04 -2.23849462E+00
 -2.37595368E+00 -2.08414322E+00 -3.43711507E-01 -8.62185753E-05 -1.21647174E-04
 -7.98061147E-01 -1.90807351E+00 -7.98081135E-01 -1.90809727E+00 -2.95836629E+00
 -3.89560017E+00 -6.19803422E-01 -1.73603933E+00  1.18968700E+00 -1.68467531E+00
 -4.49460982E-04 -1.98434662E+00  1.31207416E+00 -1.85734483E+00 -4.95724736E-04
 -1.34099001E+00 -1.87615581E+00 -8.06263226E-01  1.30696799E+00  3.49150830E-04
 -4.94070660E-04 -1.32132617E-01 -7.95462342E-01 -1.32108822E-01 -7.95402585E-01
 -1.45630046E-01 -8.27814627E-01 -4.03955726E+00 -1.75557100E+00 -3.08715507E+00
  8.22457771E-01 -1.17536601E+00 -3.08750080E-04 -3.50974781E+00  1.20396755E+00
 -1.71624106E+00 -4.51007410E-04 -2.23842565E+00 -2.37590451E+00 -2.08408203E+00
  3.43704076E-01  9.14837587E-05 -1.30097009E-04 -7.98094669E-01 -1.90810797E+00
 -7.98038322E-01 -1.90803149E+00 -8.27826198E-01 -1.94582878E+00 -2.95831902E+00
 -3.89555621E+00
Number of independent functions            I               23
Alpha MO coefficients                      R   N=         529
 -9.92800942E-01 -4.97453348E-02 -9.41500702E-05  3.22777546E-09  3.16832090E-08
  1.45118100E-02  3.82649985E-04  6.84090225E-08 -1.47691650E-07  9.33805131E-03
  9.32438624E-03  9.38678682E-03 -3.83973856E-08 -2.15751571E-08 -1.53801025E-08
  1.35469033E-04 -2.64187351E-03  1.35509799E-04 -2.64184377E-03  1.92148403E-04
 -2.49920824E-03  1.92087091E-04 -2.49915171E-03  1.98205506E-01 -3.79832311E-01
 -1.43520844E-02  1.99296563E-06  3.75821337E-06 -3.60377486E-01 -6.49543023E-03
 -9.60511123E-07  2.22755148E-06 -5.59910115E-03 -1.00528514E-03  1.86463750E-03
 -1.01852203E-06 -2.41507805E-07  2.96932648E-07 -1.37483517E-01 -3.89608368E-02
 -1.37484873E-01 -3.89615758E-02 -1.32317683E-01 -3.87104192E-02 -1.32311095E-01
 -3.87085036E-02 -7.45189922E-03  1.55743326E-02 -4.44574844E-01 -1.18398504E-04
 -2.35270306E-05  1.88780888E-02 -2.05979242E-01 -5.34909774E-05 -1.03655408E-05
 -5.00198964E-03  2.25246051E-02 -1.89060832E-02  6.56300058E-06 -3.22093699E-06
  1.31577713E-05 -1.70456932E-01 -1.34971320E-01 -1.70508654E-01 -1.35011246E-01
  1.70009895E-01  1.35861472E-01  1.69881533E-01  1.35762212E-01  1.26187922E-06
 -1.78142349E-06  1.14086667E-04 -4.46114365E-01 -3.67343357E-06 -7.58485412E-06
  5.65390954E-05 -2.15477047E-01 -2.37736055E-06  1.44151816E-06 -6.33149863E-06
  4.60765189E-06  2.46765822E-02  1.37427827E-05 -1.03787274E-07 -2.08795094E-05
 -1.87889998E-05  1.06404637E-04  9.02826431E-05  2.40353467E-01  2.00871088E-01
 -2.40444726E-01 -2.00951436E-01 -2.96241110E-06  6.69754173E-06 -2.15849343E-05
 -4.32886220E-06  4.48357483E-01  5.75524378E-06 -1.16384064E-05 -1.65724516E-06
  2.24313022E-01  2.64788282E-06  2.23691310E-06 -5.63255581E-06 -1.47504554E-05
  2.76526738E-02  4.33505670E-07 -2.37286667E-01 -2.16701470E-01  2.37249727E-01
  2.16667434E-01 -4.73028162E-05 -4.13634335E-05  8.04023642E-05  7.27187628E-05
 -1.62836427E-01  1.96700706E-01  5.96717289E-03  2.01880575E-05 -6.03945235E-06
  2.59742289E+00  5.99713354E-02  5.99401091E-05 -3.11905486E-05 -1.15113565E-02
 -1.38305576E-02 -1.23970928E-02  8.98502305E-07 -1.90736651E-07 -8.31907573E-07
 -1.55614200E-02 -9.86781148E-01 -1.55648837E-02 -9.86780268E-01 -2.52083727E-02
 -9.86732657E-01 -2.52169286E-02 -9.86809311E-01 -1.32871484E-06  5.25230718E-06
 -4.87190888E-05  1.23845720E-04  3.76646071E-01  2.82966989E-06 -1.57426384E-04
  4.53607716E-04  1.26003256E+00 -2.49812609E-06 -2.45611817E-06  4.79080316E-06
  2.06842340E-05 -2.25024783E-02 -9.64864350E-07  1.23932230E-01  1.46333294E+00
 -1.23913004E-01 -1.46296323E+00  5.33110442E-05  7.31392055E-04 -8.84151607E-05
 -1.07831602E-03 -5.88148209E-06  3.00925554E-06  1.75512687E-04 -3.80599615E-01
  1.27772791E-04  1.71936069E-04  6.03248905E-04 -1.36438740E+00  4.19755721E-04
 -1.71630042E-06  6.20142823E-06 -6.21387044E-06 -2.14626605E-02 -1.82966262E-05
  5.63190013E-07  4.25608396E-05  3.89743737E-04 -9.49673133E-05 -1.44149254E-03
 -1.05076370E-01 -1.52794690E+00  1.05140506E-01  1.52876312E+00 -1.17373908E-03
  1.10089100E-02 -3.94814590E-01 -1.64483684E-04 -4.44872204E-05 -5.34819556E-02
 -1.45004846E+00 -6.32693570E-04 -1.66847646E-04  1.27823665E-03 -1.31578054E-02
  1.23630966E-02 -8.81752688E-06  4.22816653E-06 -7.97988374E-06  5.08983437E-02
  1.15219647E+00  5.09321305E-02  1.15276438E+00 -6.58968651E-02 -1.10196920E+00
 -6.58144454E-02 -1.10053997E+00 -4.28495024E-07 -1.80938643E-05 -1.33417396E-05
 -1.65036427E-04 -7.68437981E-01  2.18423564E-05  5.30057180E-05  2.99542216E-04
  1.28650901E+00 -1.26515913E-05 -3.26169762E-06  1.21576224E-05  7.67382252E-05
 -9.83664688E-02 -2.19957675E-06  4.02562129E-01  3.02952667E-02 -4.02557760E-01
 -3.03148387E-02  1.78376974E-04  5.90636936E-05 -2.14102615E-04 -1.26644521E-05
 -1.98263676E-06 -2.50790984E-05  1.05407085E-04  7.66535513E-01 -1.62721207E-04
  6.54442577E-05 -2.77827811E-04 -1.44707410E+00  2.84920464E-04 -1.30132883E-06
 -1.30930697E-05  1.15453296E-05 -1.02790397E-01 -7.74634718E-05  1.86391227E-06
  2.28257984E-04  1.24961728E-04 -1.68676119E-04 -7.98684718E-06 -4.02608832E-01
 -1.77762503E-01  4.02500144E-01  1.77640628E-01  7.17869611E-04  3.46397405E-02
 -7.64596037E-01  1.21639677E-04  1.80811791E-05 -8.00033911E-03  1.66145687E+00
 -1.78312870E-04 -8.46068987E-06 -9.00487947E-03  1.00850756E-01 -7.97583078E-02
 -1.58892606E-05 -7.84518100E-06  5.70947184E-05 -2.64306231E-01 -2.88243272E-01
 -2.64335237E-01 -2.88316952E-01  3.06732633E-01  2.29680867E-01  3.06850669E-01
  2.29661810E-01 -8.73138687E-06 -1.14494955E-05 -1.15305217E-04  6.22306346E-05
  8.34122002E-01  8.93396014E-05  1.76546410E-04 -8.82570532E-05 -1.20651153E+00
 -2.45542737E-05 -3.34286798E-05  5.22295685E-05  1.26720736E-04 -1.98108226E-01
 -5.24801317E-06  7.17164479E-01 -1.42205906E+00 -7.17052280E-01  1.42167591E+00
  1.08801076E-04 -3.01294883E-04 -3.91235367E-04  6.82961046E-04  3.10823672E-05
 -1.90346860E-04  5.92207238E-04 -8.50288681E-01  6.24680797E-05  2.04223977E-04
 -8.78959709E-04  1.22368723E+00 -9.09615892E-05 -9.55173278E-06  1.24814983E-04
 -1.22223264E-04 -2.05797072E-01 -1.26545602E-04  3.65859909E-06  8.61886263E-05
  5.72354066E-05 -4.23770230E-04  1.04366262E-03 -7.24157634E-01  1.39348326E+00
  7.25266346E-01 -1.39513491E+00 -4.15993483E-02  1.49768626E-01 -8.07987713E-01
 -6.61799564E-04 -1.28352135E-04 -4.02255119E-02  1.19460385E+00  9.51819317E-04
  1.68137091E-04  2.91178681E-03 -1.69729173E-01  1.64378807E-01 -1.60283333E-04
  5.11920249E-05 -1.00197334E-04  2.39525072E-01 -7.97823835E-01  2.39825628E-01
 -7.98383877E-01 -7.24776175E-01  1.04569749E+00 -7.23679391E-01  1.04356215E+00
 -9.22263311E-02  7.77152940E-01  3.04352663E-01 -3.18408189E-05 -8.98130050E-07
 -1.10208951E+00 -3.31092847E-01  5.94015993E-05 -2.59925963E-05 -3.79932110E-02
  1.11351516E-01 -9.07136105E-03 -8.82974823E-06 -3.44100409E-06  5.26565941E-05
 -8.00322132E-01  8.10191066E-01 -8.00335257E-01  8.10266646E-01 -4.09625912E-01
  2.24407549E-01 -4.09596786E-01  2.24305091E-01  9.56790399E-02  2.04491152E+00
 -1.82492879E-02 -6.54066707E-06 -3.13661893E-06 -5.37885110E+00 -1.72114880E-01
 -1.99561269E-05  7.24449647E-05  2.00042860E-01  5.76055881E-02  8.67953221E-02
 -1.19841258E-05 -1.49972484E-05 -3.25572291E-05  3.26969137E-01  1.01634737E+00
  3.26921843E-01  1.01636573E+00  2.17807961E-01  1.03094949E+00  2.17882837E-01
  1.03084926E+00 -1.83349647E-05 -1.73823398E-04  1.22637747E-07 -1.72417558E-07
  1.48573978E-06  5.52701747E-04  3.85305265E-05 -6.97382370E-07  8.16219411E-07
  1.10016709E-03 -9.20194107E-04 -1.93819827E-04  1.96829096E-05 -1.81875956E-05
  9.99999300E-01 -9.93165725E-05 -9.54608915E-05 -1.05421643E-04 -9.32978436E-05
 -8.22292221E-05 -8.07265525E-05 -7.90064189E-05 -8.12844899E-05 -2.22360927E-02
 -2.10269166E-01  2.97810120E-05 -3.34321094E-06  1.24937520E-06  6.69109224E-01
  4.40908935E-02  1.03451141E-05 -1.51446973E-05  9.85758822E-01 -3.98426858E-01
 -6.03853716E-01 -1.89768116E-05 -1.24952153E-04 -1.04824801E-03 -1.22240012E-01
 -1.14059633E-01 -1.22234918E-01 -1.14054824E-01 -1.00272064E-01 -9.80201482E-02
 -1.00276330E-01 -9.80215496E-02  1.21049065E-04  3.43620461E-02 -1.43325204E-01
  1.22039663E-04 -1.39685131E-05 -8.02863123E-02 -5.45122864E-01  3.67314888E-04
 -3.04883897E-05 -1.36075643E-01  1.02599815E+00 -8.99940095E-01 -9.99474290E-04
 -1.82706577E-04  6.12280101E-04  4.68441155E-01  2.27594121E-02  4.68607602E-01
  2.27569054E-02 -4.78474841E-01  2.34967057E-02 -4.79654422E-01  2.36547791E-02
 -3.36763907E-06  4.91252760E-05 -1.40921622E-04 -1.51147367E-01  6.42629004E-05
 -4.38648691E-05 -5.03030307E-04 -4.33375651E-01  1.56475062E-04 -1.01534735E-04
  9.03564894E-04 -8.20394582E-04  1.12932535E+00  1.13892423E-03 -2.09425518E-05
  8.92207578E-04 -4.87096010E-05 -7.90243990E-05  1.02970683E-04 -6.75483945E-01
  7.54054249E-02  6.74576545E-01 -7.53781925E-02  1.99469027E-06 -1.53779208E-05
  3.70221004E-06 -7.15674894E-05 -1.47587351E-01  2.77879395E-06  2.56238296E-05
 -1.95638685E-04 -3.38986033E-01 -1.18284857E-04 -1.07346336E-04  2.33936687E-04
  1.14392247E-03 -1.13656390E+00 -2.14759691E-05 -6.71197434E-01  1.35035140E-01
  6.71114102E-01 -1.35027577E-01 -4.30725147E-04  6.09618991E-05  5.64960708E-04
 -9.29251881E-05  4.87407686E-01 -2.94105994E+00  9.72388753E-03 -2.54444367E-06
 -2.84279424E-06 -2.42331459E+00 -5.74902102E-02 -1.10637679E-05  2.29401294E-05
  1.87416200E+00  1.88687593E+00  1.87413020E+00  9.86831762E-06  6.14578701E-06
  5.01619433E-06 -1.22225321E-01  4.96411632E-01 -1.22239371E-01  4.96414028E-01
 -1.35236947E-01  4.82613725E-01 -1.35210929E-01  4.82593768E-01
Alpha Orbital Energies                     R   N=          23
 -1.01670954E+01 -6.91075441E-01 -4.07046360E-01 -3.89216108E-01 -3.69979783E-01
  1.17111140E-01  1.69334567E-01  1.74657311E-01  1.83270232E-01  5.26088899E-01
  5.32290435E-01  5.46485426E-01  8.79929174E-01  8.96292488E-01  9.10465586E-01
  9.51241396E-01  1.08934313E+00  1.66284229E+00  1.66963510E+00  2.22839595E+00
  2.23801891E+00  2.25096127E+00  4.17575708E+00
Total SCF Density                          R   N=         276
  2.04998933E+00 -5.20273973E-02  2.93979485E-01  1.12347451E-03 -2.93577580E-03
  3.95705593E-01  1.42235263E-06 -3.61288273E-06  3.42557065E-06  3.98036082E-01
 -8.78918596E-07  2.41482949E-06  1.45479769E-06 -5.98626438E-07  4.02048867E-01
 -1.71953637E-01  2.72910264E-01 -6.44384509E-03  8.60753804E-07  1.56474681E-06
  2.60877814E-01 -2.64777285E-04 -1.51970036E-03  1.83332766E-01 -1.69632428E-06
 -7.93386909E-07 -3.08427032E-03  8.49395771E-02 -2.63173722E-07 -1.75622742E-07
 -1.57700075E-06  1.92254824E-01  9.95144521E-08  1.94336866E-06 -2.31712379E-06
  9.28607209E-02  1.74791670E-09  1.00432925E-06 -5.31500945E-07  1.81572469E-07
  2.01144844E-01  5.80819759E-07 -9.80439389E-07  2.82154548E-07  1.00632664E-01
 -2.06866490E-02  3.16858481E-03  4.60647693E-03 -1.23988018E-07  2.56825597E-06
  4.11774804E-03  2.14049572E-03 -7.40806876E-08  1.26389612E-06  2.87138091E-04
 -1.92487272E-02  5.37601560E-04 -2.00006470E-02  3.11419741E-07  9.39080528E-07
  1.84563482E-03 -9.25900746E-03  3.22058472E-07  5.29375233E-07 -3.99351079E-05
  1.19062531E-03 -1.76174863E-02 -2.93929619E-03  1.67550489E-02  3.73366210E-07
 -4.14661274E-06 -1.78532979E-03  7.77148251E-03  3.46442413E-08 -2.12945513E-06
  3.43564054E-04 -6.80401133E-04  8.98057352E-04 -3.62959937E-07  8.93867568E-07
 -1.75072058E-07 -2.20171571E-02 -1.34085662E-05  6.06277860E-07  1.00244938E-07
 -1.06344748E-02 -6.73490929E-06  1.60977484E-08 -1.55557459E-08 -2.51121081E-08
  1.21786794E-03 -1.68694977E-07  4.55644484E-07  1.68020490E-06 -1.25003530E-05
  2.47965665E-02  3.69918776E-07  6.87901101E-07 -6.01381793E-06  1.24057096E-02
  1.81005401E-07 -2.14782176E-08 -1.90898899E-07 -1.37571032E-07  1.52934113E-03
 -4.78574704E-08  1.85814140E-07 -1.17077910E-05  8.94836968E-08  3.88114889E-07
  2.82331647E-07 -5.42434654E-06  4.33178969E-08  1.94210979E-07 -1.35240427E-07
  5.91866636E-07 -4.96711076E-07 -4.96291396E-09  2.38874256E-08  3.46828102E-10
 -5.22271061E-02  9.91152015E-02  1.55518292E-01  6.04993532E-05 -2.12771518E-01
  9.26573268E-02  7.20128333E-02  2.82845377E-05 -1.06450057E-01  3.24608921E-03
 -7.40106488E-03  5.93784817E-03  4.01233460E-06 -1.31220577E-02 -4.77304343E-06
  2.08524528E-01 -8.18592653E-03  2.56529320E-02  1.21137894E-01  5.04457195E-05
 -1.94313394E-01  2.29060449E-02  5.61117355E-02  2.33294302E-05 -9.72152978E-02
  1.73605407E-03 -6.05225481E-03  4.91110594E-03  3.77352826E-06 -1.19838622E-02
 -3.76277849E-06  1.59566564E-01  1.33403422E-01 -5.22297650E-02  9.91209727E-02
  1.55543862E-01 -5.71633822E-05  2.12752370E-01  9.26618129E-02  7.20231267E-02
 -2.81363965E-05  1.06439328E-01  3.24913598E-03 -7.40127002E-03  5.93445504E-03
 -3.70572193E-06  1.31223463E-02 -4.36300330E-06 -1.66597895E-02 -4.60848416E-02
  2.08525508E-01 -8.18825084E-03  2.56580514E-02  1.21154732E-01 -5.06136711E-05
  1.94294990E-01  2.29100576E-02  5.61181178E-02 -2.51075651E-05  9.72052795E-02
  1.73875765E-03 -6.05211397E-03  4.90773249E-03 -3.62874097E-06  1.19837589E-02
 -3.38811649E-06 -4.60849514E-02 -5.44091043E-02  1.59562309E-01  1.33395611E-01
 -5.53669034E-02  1.05792670E-01 -1.47311368E-01 -2.14491054E-01 -5.31771882E-05
  1.01789482E-01 -6.82907711E-02 -1.03599244E-01 -2.64781236E-05 -2.14773997E-04
  7.92538500E-03 -6.91606869E-03  1.18647067E-02  2.95887315E-06  4.34538558E-06
 -2.15632656E-02 -3.55720506E-02 -2.15642005E-02 -3.55739983E-02  2.08362324E-01
 -1.24071487E-02  3.38867711E-02 -1.19643729E-01 -1.79255281E-01 -4.52509395E-05
  3.29547532E-02 -5.54456018E-02 -8.65806780E-02 -2.25000754E-05 -9.71764810E-04
  6.14913102E-03 -5.32664589E-03  9.91548740E-03  2.37703945E-06  3.51062487E-06
 -3.56624056E-02 -3.36348398E-02 -3.56644762E-02 -3.36376641E-02  1.52998903E-01
  1.20624555E-01 -5.53634712E-02  1.05785388E-01 -1.47307135E-01  2.14490937E-01
  6.48764083E-05  1.01787181E-01 -6.82923477E-02  1.03602718E-01  3.31024979E-05
 -2.14950267E-04  7.92567692E-03 -6.91562377E-03 -1.18642111E-02 -3.19253392E-06
  4.44192376E-06 -2.15618445E-02 -3.55751936E-02 -2.15639606E-02 -3.55713271E-02
 -2.28061026E-02 -4.01934080E-02  2.08359341E-01 -1.24060370E-02  3.38836516E-02
 -1.19647217E-01  1.79262342E-01  6.00050951E-05  3.29557234E-02 -5.54501757E-02
  8.65863937E-02  3.05927892E-05 -9.71950077E-04  6.14974544E-03 -5.32658866E-03
 -9.91573037E-03 -2.35728580E-06  3.59152096E-06 -3.56664539E-02 -3.36425388E-02
 -3.56625332E-02 -3.36341307E-02 -4.01942386E-02 -4.08316288E-02  1.53004592E-01
  1.20634914E-01
Pure Switching                             I                1
Dipole_Data                                R   N=           3
  6.29389451E-02 -1.59107426E-06 -2.24169384E-05
Quadrupole_Data                            R   N=           6
 -7.92675058E+00  4.30297891E-05 -8.22606218E+00  2.26565899E-05  1.97429431E-05
 -8.61656035E+00
Octapole_Data                              R   N=          10
  2.17393355E-01 -2.13887541E-05 -7.11726614E-01 -3.67839380E-05  6.52409936E-05
 -3.57230505E-04  4.76873182E-06  5.89978258E-01 -5.36278309E-06 -1.00087221E-04
Hexadecapole_Data                          R   N=          15
 -1.61225431E+01  9.62431790E-05 -4.85049521E+00  4.97759453E-05 -1.49924393E+01
  1.40200723E-04 -1.95340656E-05 -1.69277595E-06  3.67557466E-04 -4.80173086E+00
  4.02246109E-05 -5.37452233E+00 -3.03212464E-05 -2.45608994E-04 -1.49931494E+01
