Jobname.Temp
SP        R                             6-31G(d)            
Number of atoms                            I                5
Charge                                     I                0
Multiplicity                               I                1
Number of electrons                        I               10
Number of alpha electrons                  I                5
Number of beta electrons                   I                5
Atomic numbers                             I   N=           5
           6           1           1           1           1
Current cartesian coordinates              R   N=          15
 -7.30473551E-02 -1.30891607E-05  1.56022712E-05  1.48495610E+00  1.63222204E-04
 -1.35690939E+00  1.48501690E+00 -1.53960513E-04  1.35683881E+00 -1.26586465E+00
 -1.68690932E+00 -1.39076873E-04 -1.26582422E+00  1.68697859E+00  1.16046815E-04
Nuclear charges                            R   N=           5
  6.00000000E+00  1.00000000E+00  1.00000000E+00  1.00000000E+00  1.00000000E+00
Number of basis functions                  I               23
Number of contracted shells                I               12
Number of primitive shells                 I               27
Highest angular momentum                   I                2
Largest degree of contraction              I                6
Shell types                                I   N=          12
           0          -1          -1           2           0           0
           0           0           0           0           0           0
Number of primitives per shell             I   N=          12
           6           3           1           1           3           1
           3           1           3           1           3           1
Shell to atom map                          I   N=          12
           1           1           1           1           2           2
           3           3           4           4           5           5
Primitive exponents                        R   N=          27
  3.04752490E+03  4.57369510E+02  1.03948690E+02  2.92101550E+01  9.28666300E+00
  3.16392700E+00  7.86827240E+00  1.88128850E+00  5.44249300E-01  1.68714400E-01
  8.00000000E-01  1.87311370E+01  2.82539370E+00  6.40121700E-01  1.61277800E-01
  1.87311370E+01  2.82539370E+00  6.40121700E-01  1.61277800E-01  1.87311370E+01
  2.82539370E+00  6.40121700E-01  1.61277800E-01  1.87311370E+01  2.82539370E+00
  6.40121700E-01  1.61277800E-01
Contraction coefficients                   R   N=          27
  1.83470016E-03  1.40373012E-02  6.88426061E-02  2.32184421E-01  4.67941342E-01
  3.62312032E-01 -1.19332409E-01 -1.60854212E-01  1.14345648E+00  1.00000000E+00
  1.00000000E+00  3.34945995E-02  2.34726947E-01  8.13757318E-01  1.00000000E+00
  3.34945995E-02  2.34726947E-01  8.13757318E-01  1.00000000E+00  3.34945995E-02
  2.34726947E-01  8.13757318E-01  1.00000000E+00  3.34945995E-02  2.34726947E-01
  8.13757318E-01  1.00000000E+00
P(S=P) Contraction coefficients            R   N=          27
  0.00000000E+00  0.00000000E+00  0.00000000E+00  0.00000000E+00  0.00000000E+00
  0.00000000E+00  6.89990956E-02  3.16423980E-01  7.44308252E-01  1.00000000E+00
  0.00000000E+00  0.00000000E+00  0.00000000E+00  0.00000000E+00  0.00000000E+00
  0.00000000E+00  0.00000000E+00  0.00000000E+00  0.00000000E+00  0.00000000E+00
  0.00000000E+00  0.00000000E+00  0.00000000E+00  0.00000000E+00  0.00000000E+00
  0.00000000E+00  0.00000000E+00
Coordinates of each shell                  R   N=          36
 -7.30473551E-02 -1.30891607E-05  1.56022712E-05 -7.30473551E-02 -1.30891607E-05
  1.56022712E-05 -7.30473551E-02 -1.30891607E-05  1.56022712E-05 -7.30473551E-02
 -1.30891607E-05  1.56022712E-05  1.48495610E+00  1.63222204E-04 -1.35690939E+00
  1.48495610E+00  1.63222204E-04 -1.35690939E+00  1.48501690E+00 -1.53960513E-04
  1.35683881E+00  1.48501690E+00 -1.53960513E-04  1.35683881E+00 -1.26586465E+00
 -1.68690932E+00 -1.39076873E-04 -1.26586465E+00 -1.68690932E+00 -1.39076873E-04
 -1.26582422E+00  1.68697859E+00  1.16046815E-04 -1.26582422E+00  1.68697859E+00
  1.16046815E-04
Overlap Matrix                             R   N=         276
  1.00000000E+00  2.19058872E-01  1.00000000E+00  7.40912981E-18  1.73052431E-17
  1.00000000E+00 -4.86320368E-22 -9.49490322E-22  6.89745763E-39  1.00000000E+00
 -1.13433019E-21 -2.07769796E-22 -1.37949153E-38 -2.54398589E-42  1.00000000E+00
  1.84261053E-01  8.12273068E-01  4.90869753E-18 -1.45803671E-21 -2.01350238E-22
  1.00000000E+00  1.79069652E-20 -7.47270255E-19  5.69754058E-01  0.00000000E+00
  0.00000000E+00  0.00000000E+00  1.00000000E+00  2.15979114E-22 -1.24713194E-21
  0.00000000E+00  5.69754058E-01  0.00000000E+00  0.00000000E+00  0.00000000E+00
  1.00000000E+00 -4.70219213E-22  5.09921751E-23  0.00000000E+00  0.00000000E+00
  5.69754058E-01  0.00000000E+00  0.00000000E+00  0.00000000E+00  1.00000000E+00
  7.91027073E-02  7.10235064E-01  0.00000000E+00 -1.24360589E-21  2.42565535E-21
  6.29936196E-01  0.00000000E+00  0.00000000E+00  0.00000000E+00  1.00000000E+00
  7.91027073E-02  7.10235064E-01  0.00000000E+00 -3.73081766E-21  2.42565535E-21
  6.29936196E-01  0.00000000E+00  0.00000000E+00  0.00000000E+00  3.33333333E-01
  1.00000000E+00  7.91027073E-02  7.10235064E-01  0.00000000E+00 -1.24360589E-21
  7.27696605E-21  6.29936196E-01  0.00000000E+00  0.00000000E+00  0.00000000E+00
  3.33333333E-01  3.33333333E-01  1.00000000E+00  1.99794877E-38  0.00000000E+00
 -2.15398858E-21  0.00000000E+00  0.00000000E+00  0.00000000E+00  0.00000000E+00
  0.00000000E+00  0.00000000E+00  0.00000000E+00  0.00000000E+00  0.00000000E+00
  1.00000000E+00 -8.03521907E-40  0.00000000E+00  4.20135831E-21  0.00000000E+00
  0.00000000E+00  0.00000000E+00  0.00000000E+00  0.00000000E+00  0.00000000E+00
  0.00000000E+00  0.00000000E+00  0.00000000E+00  0.00000000E+00  1.00000000E+00
 -3.50668655E-42 -2.04292008E-41  0.00000000E+00  4.20135831E-21 -2.15398858E-21
  0.00000000E+00  0.00000000E+00  0.00000000E+00  0.00000000E+00  0.00000000E+00
  0.00000000E+00  0.00000000E+00  0.00000000E+00  0.00000000E+00  1.00000000E+00
  3.22654588E-02  2.71604305E-01  2.76939310E-01  3.13398199E-05 -2.41197072E-01
  3.75715315E-01  3.88172865E-01  4.39275582E-05 -3.38074642E-01  3.08119475E-01
  1.16515986E-01  2.61853678E-01  3.75557063E-05 -2.89035687E-01 -3.27087056E-05
  1.00000000E+00  9.18319546E-02  4.74640908E-01  2.00353322E-01  2.26729713E-05
 -1.74495396E-01  7.03030508E-01  4.39763900E-01  4.97658545E-05 -3.83007255E-01
  3.96059572E-01  3.50073499E-01  3.84955482E-01  9.01361179E-06 -6.93704296E-02
 -7.85030036E-06  6.58292049E-01  1.00000000E+00  3.22670405E-02  2.71611275E-01
  2.76958247E-01 -2.50409972E-05  2.41186058E-01  3.75719756E-01  3.88192616E-01
 -3.50981794E-05  3.38053291E-01  3.08144843E-01  1.16519655E-01  2.61840659E-01
 -3.00089323E-05  2.89035457E-01 -2.61329502E-05  6.84280876E-02  2.50278864E-01
  1.00000000E+00  9.18331960E-02  4.74645936E-01  2.00363354E-01 -1.81157205E-05
  1.74484234E-01  7.03035538E-01  4.39784209E-01 -3.97627992E-05  3.82981264E-01
  3.96067775E-01  3.50077576E-01  3.84954733E-01 -7.20216775E-06  6.93687408E-02
 -6.27192895E-06  2.50278864E-01  5.52191991E-01  6.58292049E-01  1.00000000E+00
  3.22688893E-02  2.71619422E-01 -2.12039985E-01 -2.99869437E-01 -2.74963849E-05
  3.75724947E-01 -2.97195244E-01 -4.20297003E-01 -3.85389331E-05  2.28841486E-01
  3.41158449E-01  1.16523945E-01  2.75120314E-01  2.52270259E-05  3.56763562E-05
  1.35540042E-02  1.31895890E-01  1.35547673E-02  1.31898865E-01  1.00000000E+00
  9.18346470E-02  4.74651812E-01 -1.53395445E-01 -2.16933639E-01 -1.98916265E-05
  7.03041419E-01 -3.36691248E-01 -4.76152716E-01 -4.36605961E-05  3.77037901E-01
  4.03993320E-01  3.50082343E-01  6.60272779E-02  6.05433973E-06  8.56211834E-06
  1.31895890E-01  3.72263458E-01  1.31898865E-01  3.72268631E-01  6.58292049E-01
  1.00000000E+00  3.22647783E-02  2.71601305E-01 -2.12016622E-01  2.99863527E-01
  1.78540626E-05  3.75713404E-01 -2.97176009E-01  4.20307829E-01  2.50253920E-05
  2.28814059E-01  3.41153782E-01  1.16514406E-01 -2.75101387E-01 -1.63797093E-05
  2.31664732E-05  1.35557656E-02  1.31902757E-01  1.35531829E-02  1.31892688E-01
  1.80244188E-02  1.47824615E-01  1.00000000E+00  9.18314205E-02  4.74638745E-01
 -1.53385842E-01  2.16939686E-01  1.29167251E-05  7.03028343E-01 -3.36673573E-01
  4.76170802E-01  2.83515085E-05  3.77024658E-01  4.03987190E-01  3.50071744E-01
 -6.60267766E-02 -3.93127573E-06  5.56015935E-06  1.31902757E-01  3.72275398E-01
  1.31892688E-01  3.72257889E-01  1.47824615E-01  3.99347926E-01  6.58292049E-01
  1.00000000E+00
Core Hamiltonian Matrix                    R   N=         276
 -1.98812393E+01 -4.08454889E+00 -6.71945104E+00 -7.85448163E-03 -5.55429328E-02
 -6.04090006E+00  3.04695158E-08 -4.18475002E-07 -6.00804530E-06 -5.99175731E+00
  1.23286287E-06  8.91427499E-06 -2.05571648E-06 -2.83355048E-10 -5.94260040E+00
 -3.51967449E+00 -5.37815133E+00 -5.20678330E-02 -1.54473582E-06  8.71302497E-06
 -5.44218443E+00 -1.31950143E-03 -3.70011935E-02 -3.11171791E+00 -4.02888175E-06
 -1.31076428E-06 -5.94471489E-02 -3.82237096E+00  5.11393070E-09 -1.34645843E-06
 -4.02888175E-06 -3.06984377E+00 -1.78490989E-10 -5.45420436E-06 -3.58830182E-06
 -3.75556294E+00  2.07114350E-07  6.26870922E-06 -1.31076428E-06 -1.78490989E-10
 -3.02795822E+00  1.10894733E-05 -9.43209860E-07 -1.20857879E-10 -3.68873845E+00
 -1.50350541E+00 -4.45866282E+00 -9.94029319E-02  2.33648721E-06  2.16722381E-06
 -3.81652912E+00 -8.00683301E-02  1.50573164E-06  1.62109357E-06 -4.83033194E+00
 -1.50214056E+00 -4.41659256E+00  4.21511649E-02 -2.41713023E-06  4.84739659E-06
 -3.77186699E+00  4.60028002E-02 -3.96564872E-06  3.88208188E-06 -2.32275310E+00
 -4.76815244E+00 -1.50077530E+00 -4.37451009E+00 -7.31475240E-02 -1.27753262E-06
  1.40298219E-05 -3.72719228E+00 -6.53244577E-02 -1.36476821E-06  1.13997007E-05
 -2.31574857E+00 -2.26659490E+00 -4.66379157E+00 -3.24068615E-07 -9.19222614E-06
  4.04691455E-06  7.30079591E-02  1.88752061E-05 -8.60723605E-06  2.60800370E-06
  7.96791872E-02  1.82250452E-05 -1.23426697E-05 -8.96417926E-06 -2.75456122E-06
 -3.76825929E+00 -1.13061321E-07 -3.16284127E-06  3.75374175E-06  1.88752061E-05
 -1.26695228E-01 -2.89223225E-06  2.80781642E-06  1.82250452E-05 -1.13145280E-01
 -7.32894224E-06 -2.04161292E-06  1.10748377E-06  5.59092484E-06 -3.74724570E+00
 -1.56543596E-11 -4.36525708E-10  1.88752061E-05  8.39593717E-06 -2.21275140E-06
 -3.96955926E-10  1.82250452E-05  6.72396306E-06 -2.36384789E-06  3.22792196E-06
 -9.14467465E-06  5.91561276E-06 -3.53617731E-06 -4.77103998E-06 -3.59978471E+00
 -6.20487299E-01 -1.75349486E+00 -1.58321476E+00 -1.77950568E-04  1.36031364E+00
 -2.00836959E+00 -1.74884408E+00 -1.96658755E-04  1.50324298E+00 -1.75232753E+00
 -8.12053510E-01 -1.50550913E+00 -1.81569554E-04  1.38766814E+00  1.57395409E-04
 -4.09963459E+00 -1.75611770E+00 -3.10362440E+00 -1.12985593E+00 -1.24928695E-04
  9.37583492E-01 -3.53863623E+00 -1.65071196E+00 -1.84135129E-04  1.36981827E+00
 -2.37929057E+00 -2.09580209E+00 -2.26769897E+00 -4.98170933E-05  3.59848674E-01
  4.31676824E-05 -2.99774701E+00 -3.94745790E+00 -6.20517500E-01 -1.75354134E+00
 -1.58332336E+00  1.40858364E-04 -1.36024977E+00 -2.00840092E+00 -1.74893626E+00
  1.55585858E-04 -1.50314855E+00 -1.75245566E+00 -8.12077933E-01 -1.50545104E+00
  1.43133923E-04 -1.38766202E+00  1.24823012E-04 -4.50473403E-01 -1.31365447E+00
 -4.09965909E+00 -1.75614132E+00 -3.10365579E+00 -1.12991123E+00  9.62892229E-05
 -9.37514122E-01 -3.53866169E+00 -1.65078582E+00  1.39373093E-04 -1.36971118E+00
 -2.37933575E+00 -2.09582406E+00 -2.26769525E+00  3.30648494E-05 -3.59839979E-01
  3.40424528E-05 -1.31364926E+00 -2.52597588E+00 -2.99776196E+00 -3.94747013E+00
 -6.19694030E-01 -1.73244600E+00  1.18565554E+00  1.68141688E+00  1.54986178E-04
 -1.97953177E+00  1.30754155E+00  1.85279858E+00  1.70627399E-04 -1.33785811E+00
 -1.87270390E+00 -8.03412764E-01 -1.30214792E+00 -1.20223608E-04 -1.70413526E-04
 -1.15787682E-01 -7.51843628E-01 -1.15793722E-01 -7.51858902E-01 -4.02759884E+00
 -1.75546357E+00 -3.08280158E+00  8.10595829E-01  1.17414845E+00  1.11541605E-04
 -3.50239350E+00  1.19001736E+00  1.71334836E+00  1.62101718E-04 -2.24298045E+00
 -2.37389804E+00 -2.06987889E+00 -3.39527077E-01 -3.33994922E-05 -4.67171143E-05
 -7.59765920E-01 -1.85402874E+00 -7.59784966E-01 -1.85405182E+00 -2.95044557E+00
 -3.88418747E+00 -6.19615385E-01 -1.73232213E+00  1.18551975E+00 -1.68137789E+00
 -9.86331598E-05 -1.97944590E+00  1.30744568E+00 -1.85283204E+00 -1.08892761E-04
 -1.33770885E+00 -1.87266448E+00 -8.03347893E-01  1.30205981E+00  7.66883920E-05
 -1.08507136E-04 -1.15797744E-01 -7.51862189E-01 -1.15780651E-01 -7.51815424E-01
 -1.45306529E-01 -8.25568880E-01 -4.02752319E+00 -1.75540197E+00 -3.08271492E+00
  8.10542062E-01 -1.17418152E+00 -6.43786825E-05 -3.50231953E+00  1.18995202E+00
 -1.71341879E+00 -9.43569496E-05 -2.24290337E+00 -2.37385752E+00 -2.06981815E+00
  3.39514158E-01  1.94437048E-05 -2.78540505E-05 -7.59795510E-01 -1.85405904E+00
 -7.59752011E-01 -1.85399862E+00 -8.25580360E-01 -1.93945488E+00 -2.95039882E+00
 -3.88414427E+00
Number of independent functions            I               23
Alpha MO coefficients                      R   N=         529
 -9.92768492E-01 -4.96269777E-02 -2.62758247E-04  5.27240938E-09  3.81926969E-08
  1.37293602E-02  7.13397668E-04  7.65287181E-08 -1.27307283E-07  9.35615126E-03
  9.37162992E-03  9.47559877E-03 -4.27579161E-08 -2.06757194E-08 -5.29070398E-09
  1.59158477E-04 -2.45564830E-03  1.59190127E-04 -2.45562130E-03  2.40789586E-04
 -2.30990433E-03  2.40724803E-04 -2.30987725E-03  1.96354787E-01 -3.77365717E-01
 -4.16509893E-02  1.64828715E-06  3.84985144E-06 -3.49133527E-01 -1.61233700E-02
 -1.14933921E-06  1.95355606E-06 -1.31329933E-02 -8.44894614E-05  7.16734270E-03
 -9.94852584E-07 -1.33635250E-07  2.14044304E-07 -1.47219543E-01 -4.30573017E-02
 -1.47221187E-01 -4.30579504E-02 -1.25930384E-01 -3.75825757E-02 -1.25924437E-01
 -3.75803999E-02  2.25816460E-02 -4.45132708E-02  4.38347565E-01  4.67623710E-05
  9.57789215E-06 -6.28421808E-02  1.88726753E-01  1.92764023E-05  3.80207607E-06
  1.29487588E-02 -2.28047494E-02  1.37240651E-02 -2.97771503E-06  1.58936771E-07
 -3.79963795E-06  1.72184460E-01  1.27057846E-01  1.72202025E-01  1.27069573E-01
 -1.72657422E-01 -1.26337917E-01 -1.72601155E-01 -1.26300147E-01 -1.50588478E-06
  2.03308461E-06 -4.19964072E-05  4.46156352E-01  2.26507196E-06  9.04197749E-06
 -2.12953839E-05  2.17394460E-01  1.83945122E-06 -1.92016506E-06  3.43890551E-06
 -1.23709109E-06 -2.30138600E-02 -4.29930002E-06 -9.57300980E-07  3.16783572E-06
  3.72566949E-06 -3.81291102E-05 -3.33662827E-05 -2.41245944E-01 -1.98222057E-01
  2.41286245E-01  1.98259612E-01 -3.13460960E-06  6.94867764E-06 -6.87818362E-06
 -3.42385770E-06  4.55351846E-01  7.04121601E-06 -4.89900682E-06 -8.90162122E-07
  2.45319411E-01  8.68626480E-07  6.82931751E-07 -2.32322976E-06 -5.31382142E-06
  2.91023322E-02  1.25404766E-07 -2.30716622E-01 -2.46051952E-01  2.30703296E-01
  2.46037804E-01 -1.65900871E-05 -1.53156568E-05  2.50245659E-05  2.55081200E-05
 -1.61683573E-01  1.99424019E-01  4.26676316E-02  1.74121472E-05 -6.39747404E-06
  2.53887611E+00  2.10507849E-01  5.38255142E-05 -2.85925540E-05 -8.53267858E-03
 -1.42055804E-02 -1.24048782E-02  7.62342674E-07 -2.72339513E-07 -6.04028513E-07
 -1.80325615E-02 -1.01093663E+00 -1.80364055E-02 -1.01094451E+00 -3.21198578E-02
 -9.11151943E-01 -3.21260514E-02 -9.11219405E-01  2.40387124E-06 -6.49952326E-06
  3.89302629E-05 -8.96650585E-05 -3.64639295E-01 -1.71735931E-05  1.24788605E-04
 -3.34613228E-04 -1.13008335E+00  1.38220805E-06  1.03158294E-06 -1.82099532E-06
 -1.23999052E-05  2.67606801E-02  7.80567898E-07 -1.49023768E-01 -1.43448286E+00
  1.49016711E-01  1.43426315E+00 -3.12114274E-05 -3.88505534E-04  5.55976634E-05
  6.05147545E-04 -1.50881428E-06 -4.00146264E-06  1.17142858E-04 -3.74896269E-01
  9.28468270E-05  1.04455817E-04  4.02007674E-04 -1.37222931E+00  2.85096412E-04
 -1.76187863E-06  3.47481011E-06 -2.44354329E-06 -2.47867155E-02 -1.04726310E-05
 -4.82963538E-08  3.17367596E-05  1.76434818E-04 -5.77530906E-05 -8.57600713E-04
 -1.07276533E-01 -1.52875470E+00  1.07314040E-01  1.52930690E+00  1.35384600E-02
 -3.86810076E-02  4.04051648E-01  1.01863360E-04  3.47471325E-05 -8.22313806E-02
  1.54222273E+00  4.19278780E-04  1.24862735E-04 -6.35909487E-04  8.49891935E-03
 -6.29889207E-03  6.67158866E-06 -2.73640289E-06  1.34196285E-06 -2.86901902E-02
 -1.13221904E+00 -2.87131061E-02 -1.13259249E+00  5.43165861E-02  1.18302896E+00
  5.42649804E-02  1.18204518E+00  4.85185029E-08  1.82510422E-05 -7.24794891E-06
  6.33007701E-04  7.90691638E-01 -1.77336092E-05 -1.26719955E-05 -1.16539722E-03
 -1.13586970E+00  5.65101634E-06  2.46393046E-06 -4.34916567E-06 -1.03434058E-04
  9.37837539E-02  1.02372921E-06 -3.94256337E-01  1.15274936E-01  3.94255306E-01
 -1.15258448E-01 -3.52008875E-04 -1.32959176E-04  3.78383903E-04  8.92405354E-05
 -2.24450120E-06 -2.53836164E-05  2.80950631E-05  7.70114500E-01 -6.47482646E-04
  6.80181532E-05 -1.21885344E-04 -1.43801665E+00  9.48553591E-04 -4.46980852E-06
 -1.24243627E-06  2.56689843E-06 -1.03906095E-01 -9.67018189E-05 -2.02783421E-06
  3.60110132E-04 -2.00539902E-05 -3.66426860E-04  9.71643341E-05 -4.00447633E-01
 -1.68450011E-01  4.00401000E-01  1.68367516E-01 -1.01669946E-03 -5.86567683E-02
  7.71339578E-01 -4.34025132E-05  2.68358725E-06 -1.06042341E-02 -1.95441217E+00
  2.36325595E-05 -3.11622180E-05  3.00470712E-02 -1.15965096E-01  6.35214847E-02
  2.56168148E-06  2.07431345E-06 -1.85190095E-05  2.42882942E-01  4.81574499E-01
  2.42903927E-01  4.81641107E-01 -3.23364816E-01 -3.55487955E-01 -3.23393963E-01
 -3.55404784E-01  1.08124410E-05  3.33717291E-05  7.94672027E-05 -4.62196323E-05
 -7.95461802E-01 -1.49642851E-04 -1.39880894E-04  6.27041415E-05  1.15652125E+00
  1.83947494E-05  1.95918022E-05 -2.65694228E-05 -4.99180546E-05  1.85728215E-01
  2.90774137E-06 -7.20903378E-01  1.49203707E+00  7.20896058E-01 -1.49180056E+00
  1.64341265E-06  1.06847978E-04  2.13134821E-04 -3.13722034E-04  3.92498514E-04
 -1.66339282E-04  2.43146840E-03 -8.49067558E-01  4.55289679E-05 -2.32017538E-03
 -4.44629565E-03  1.22458731E+00 -6.77584278E-05  3.96457588E-04  4.80592029E-04
 -6.19051244E-04 -2.08848695E-01 -4.76521784E-05 -4.12517773E-06  9.36140430E-04
  2.10266062E-03  7.11394962E-04  2.54793613E-03 -7.19594674E-01  1.39156005E+00
  7.26651493E-01 -1.39857184E+00  9.47102780E-02 -2.17973632E-02  5.64279580E-01
  3.61883205E-03  9.56583918E-05 -6.00662964E-01 -1.04276652E+00 -5.23738400E-03
 -1.05580016E-04  1.00944387E-01  1.08892903E-01 -1.45545731E-01  8.87914798E-04
 -2.97566939E-05  1.62996260E-05  2.13269758E-01  5.42729350E-01  2.13063977E-01
  5.43095973E-01  8.34836314E-01 -8.12332023E-01  8.28724383E-01 -8.00466511E-01
  6.19533677E-02 -5.62906441E-01 -6.62175829E-01 -6.17228331E-05 -2.35506808E-05
  8.33019236E-01  7.41350407E-01  6.95759236E-05  4.59257855E-05  1.36541944E-01
 -2.07834580E-01  2.47517528E-02 -2.10273329E-05  5.85847482E-06 -3.25483968E-05
  8.26331677E-01 -9.87800740E-01  8.26388170E-01 -9.87935163E-01  8.75609770E-04
  2.46516283E-01  1.00661630E-03  2.46315890E-01 -6.09031140E-02 -2.03484338E+00
  1.09802966E-01  3.54968622E-05  8.21036294E-06  5.04265687E+00  1.53612086E-01
 -1.84746563E-05 -5.78788300E-05 -2.64085806E-01 -2.04184095E-02 -6.49765862E-02
  2.42814315E-05  1.08473046E-05  1.51814068E-05 -2.29746817E-01 -8.75888526E-01
 -2.29718588E-01 -8.75899897E-01  4.14826151E-02 -1.15131391E+00  4.13621792E-02
 -1.15113594E+00  2.02772710E-06  1.73527231E-05 -5.38626898E-07 -4.56789235E-07
 -1.42772274E-06 -5.68045381E-05 -1.06626606E-05 -2.15835875E-07 -6.17232553E-07
 -1.20566664E-04  1.85055459E-04 -6.27603308E-05  2.15663818E-05  7.00617669E-06
 -9.99999982E-01  1.10107560E-05  1.10412790E-05  1.72606421E-05  8.62431820E-06
  6.87374017E-06  7.13614615E-06  6.61553183E-06  7.25071210E-06  4.97883531E-02
  4.09114417E-01 -3.58377256E-03  5.57245438E-06 -1.14027214E-06 -1.35840477E+00
 -1.71990189E-01 -3.09468352E-05  3.00240135E-05 -9.22834427E-01  1.65960683E-01
  7.93714496E-01  4.17795865E-05  6.77375510E-05  6.17059148E-05  2.93485992E-01
  2.25573333E-01  2.93466124E-01  2.25565793E-01  2.34652481E-01  1.73826450E-01
  2.34677081E-01  1.73836375E-01 -3.66943548E-06 -7.49619110E-06  2.29366722E-05
 -7.20775313E-05  1.23869209E-01  6.38103232E-05  1.07894835E-04 -2.21082547E-04
  2.47686157E-01  1.13690936E-04 -1.36550671E-04  1.67693009E-05  3.44360938E-04
  1.12772068E+00  8.80313828E-06  6.34669507E-01 -1.65239624E-01 -6.34820519E-01
  1.65191548E-01 -2.32287605E-04  2.14731021E-05  3.03775521E-04 -2.20575925E-06
 -1.07043432E-05 -6.50887677E-05  1.02477012E-04 -1.53881116E-01 -6.65582770E-05
  2.89740948E-04  6.01861941E-04 -4.35229321E-01 -1.17019780E-04  3.79326126E-04
 -9.45753897E-04  5.60139306E-04  1.12863007E+00 -3.52638664E-04  2.45879616E-05
 -7.14916722E-04 -1.01563534E-05 -1.87148621E-04 -1.90312856E-04 -6.76982897E-01
  7.58629671E-02  6.77691689E-01 -7.58710187E-02  7.45097132E-03  9.58403252E-02
 -1.38433909E-01 -1.37963404E-04  1.19681842E-05 -2.93214877E-01 -7.45317671E-01
 -3.86587257E-04  2.23569907E-05 -3.93974934E-01  1.09575928E+00 -7.07551676E-01
  9.66991681E-04  1.26408332E-04  1.96094236E-04  5.17087582E-01  1.28563718E-01
  5.16951598E-01  1.28632651E-01 -4.61677171E-01 -7.37192481E-03 -4.60523298E-01
 -7.45952232E-03  4.82493406E-01 -2.97271515E+00  1.77974824E-02 -2.73886815E-06
 -2.90859038E-06 -2.27816462E+00 -9.14642317E-02 -1.20084320E-05  1.90137574E-05
  1.86550298E+00  1.88171054E+00  1.86699737E+00  1.11098505E-05  5.77217209E-06
  1.78167739E-06 -1.25007546E-01  4.53411694E-01 -1.25019563E-01  4.53414458E-01
 -1.46212283E-01  4.58728724E-01 -1.46185370E-01  4.58712318E-01
Alpha Orbital Energies                     R   N=          23
 -1.01677866E+01 -6.96277410E-01 -4.35516444E-01 -3.89582454E-01 -3.36588565E-01
  1.12622532E-01  1.60920855E-01  1.71652050E-01  1.84715669E-01  5.28087451E-01
  5.30618486E-01  5.65754008E-01  8.58737597E-01  8.93887734E-01  8.95765703E-01
  9.57701434E-01  1.03212285E+00  1.67236929E+00  1.77260885E+00  2.19931762E+00
  2.22839742E+00  2.23384759E+00  4.15734403E+00
Total SCF Density                          R   N=         276
  2.04930883E+00 -5.16692960E-02  2.93698305E-01  3.96219318E-03 -7.56317733E-03
  3.87766927E-01  1.40507354E-06 -3.59352995E-06  3.38515400E-06  3.98110985E-01
 -9.86097710E-07  2.56611430E-06  1.81199362E-06 -1.09605891E-06  4.14690607E-01
 -1.67206391E-01  2.67733976E-01 -2.60171362E-02  1.04012459E-06  2.52153542E-06
  2.52063710E-01  7.75242312E-04 -4.70368365E-03  1.66798561E-01 -1.40463152E-06
 -9.70521762E-07 -1.24419949E-02  7.17565196E-02 -3.87457762E-07  2.76855087E-08
 -1.26433027E-06  1.93983840E-01  1.74514671E-07  2.31324386E-06 -1.94587099E-06
  9.45207035E-02 -3.46298944E-07  1.60903840E-06 -2.04265025E-07 -3.81497937E-08
  2.23413294E-01  1.60926616E-06 -1.03179180E-06  3.63166986E-07  1.20363227E-01
 -2.31496280E-02  7.83046464E-03  1.24412015E-02 -5.45559520E-07  9.38690802E-07
  7.79978798E-03  5.32440003E-03 -3.04036512E-07  4.70944851E-07  8.55366880E-04
 -1.96708352E-02  1.16382350E-03 -1.99906998E-02  9.35586397E-07  1.85186498E-07
  3.18252961E-03 -8.59163684E-03  6.17638366E-07  1.58958435E-07 -4.13002439E-04
  1.21578238E-03 -1.53796437E-02 -7.57171558E-03  1.14297878E-02  2.03411053E-07
 -1.79697408E-06 -6.46943187E-03  4.96259287E-03 -2.37932701E-08 -1.00992040E-06
  3.44472163E-04 -4.49555261E-04  6.59015487E-04 -3.70928367E-07  9.26533983E-07
 -5.94580638E-07 -2.05355599E-02 -4.94363759E-06  6.51494478E-07 -1.11699201E-07
 -1.00061714E-02 -2.69185935E-06  3.65868460E-08 -2.31134617E-08 -3.98387495E-08
  1.05927558E-03 -1.86685280E-07  4.93189249E-07 -2.49499221E-07 -4.03559009E-06
  2.65036014E-02  4.82523364E-07 -2.20690895E-07 -1.92109317E-06  1.42787340E-02
  5.78138627E-08  3.21062684E-08 -1.33157103E-07 -1.11402895E-07  1.69389152E-03
 -7.70399254E-08  1.77245636E-07 -3.34887294E-06 -8.54567339E-07  1.14131110E-07
  3.27934164E-07 -1.44105690E-06 -4.16371063E-07  6.14968698E-08 -1.04118383E-07
  1.73157836E-07 -1.01323179E-07  4.40832517E-08  7.30610901E-09  3.08304861E-11
 -5.03526755E-02  9.57632261E-02  1.63220047E-01  2.00247705E-05 -2.10112314E-01
  8.11587838E-02  6.97414659E-02  8.76471886E-06 -1.13197797E-01  8.32859404E-03
 -7.82570186E-03  2.61988390E-03  1.57364296E-06 -1.34286895E-02 -1.42937391E-06
  2.09102534E-01 -6.29334093E-03  2.14254917E-02  1.14982429E-01  1.67504408E-05
 -2.24078319E-01  1.40254170E-02  4.93457942E-02  7.05496743E-06 -1.20721841E-01
  4.37504704E-03 -5.83413181E-03  2.82489322E-03  1.77266541E-06 -1.43213193E-02
 -1.04567330E-06  1.69968294E-01  1.57090442E-01 -5.03554835E-02  9.57693128E-02
  1.63229238E-01 -1.99830539E-05  2.10104509E-01  8.11642225E-02  6.97436296E-02
 -1.00115318E-05  1.13192728E-01  8.32989447E-03 -7.82587215E-03  2.61819917E-03
 -1.42946020E-06  1.34281024E-02 -1.31370051E-06 -3.80542284E-03 -5.70936439E-02
  2.09103306E-01 -6.29620459E-03  2.14317733E-02  1.14985997E-01 -1.97157754E-05
  2.24069638E-01  1.40313260E-02  4.93454214E-02 -9.94782815E-06  1.20716497E-01
  4.37622329E-03 -5.83399415E-03  2.82291992E-03 -1.74989932E-06  1.43206001E-02
 -9.22270868E-07 -5.70940485E-02 -8.50658128E-02  1.69964046E-01  1.57082591E-01
 -5.77292149E-02  1.10389832E-01 -1.40857534E-01 -2.15283383E-01 -2.04785289E-05
  1.09635625E-01 -6.10986865E-02 -1.04897430E-01 -1.08322598E-05 -1.15828071E-03
  7.89895198E-03 -6.53913563E-03  1.11052797E-02  1.08752122E-06  1.72004528E-06
 -2.23728195E-02 -3.30253316E-02 -2.23738552E-02 -3.30276485E-02  2.07737421E-01
 -1.58778759E-02  3.98406400E-02 -1.07611270E-01 -1.76887999E-01 -1.75556526E-05
  4.20543630E-02 -4.64696272E-02 -8.61895389E-02 -9.35063937E-06 -2.32715742E-03
  5.72390122E-03 -4.04975893E-03  9.12453687E-03  7.82970273E-07  1.32352495E-06
 -3.24359967E-02 -2.88506341E-02 -3.24380733E-02 -2.88539169E-02  1.48731357E-01
  1.13342078E-01 -5.77256634E-02  1.10382304E-01 -1.40849231E-01  2.15286224E-01
  1.96071531E-05  1.09633126E-01 -6.10981920E-02  1.04902221E-01  1.13611445E-05
 -1.15883395E-03  7.89970228E-03 -6.53870126E-03 -1.11045775E-02 -6.39396861E-07
  7.95773597E-07 -2.23713391E-02 -3.30284283E-02 -2.23738233E-02 -3.30255837E-02
 -2.51013741E-02 -4.25803544E-02  2.07734467E-01 -1.58765638E-02  3.98372453E-02
 -1.07611641E-01  1.76897634E-01  2.14195709E-05  4.20552678E-02 -4.64723278E-02
  8.61962993E-02  1.21380035E-05 -2.32775846E-03  5.72490567E-03 -4.04967167E-03
 -9.12461101E-03 -2.50071366E-07  5.64144519E-07 -3.24399560E-02 -2.88583589E-02
 -3.24371044E-02 -2.88508754E-02 -4.25814237E-02 -4.38504545E-02  1.48737208E-01
  1.13352447E-01
Pure Switching                             I                1
Dipole_Data                                R   N=           3
  1.78591182E-01 -2.27733899E-06 -2.81774838E-05
Quadrupole_Data                            R   N=           6
 -7.41107804E+00  4.21254680E-05 -8.19271767E+00  2.32808668E-05  2.41764899E-05
 -9.24409708E+00
Octapole_Data                              R   N=          10
  5.90549735E-01 -3.82998816E-05 -7.70247931E-01 -1.02700041E-05  3.47717559E-07
 -9.64762878E-05 -2.47669591E-05  3.32391740E-01 -1.32658589E-05 -2.70895297E-05
Hexadecapole_Data                          R   N=          15
 -1.65533951E+01  1.14963378E-04 -4.91458743E+00  3.75405800E-05 -1.48690900E+01
  7.76839957E-05 -3.47488239E-06  2.70145621E-05  1.29135432E-04 -4.97649248E+00
  3.25448577E-05 -5.24777340E+00  8.56973593E-06 -1.59558562E-05 -1.48287986E+01
