Jobname.Temp
SP        R                             6-31G(d)            
Number of atoms                            I                5
Charge                                     I                0
Multiplicity                               I                1
Number of electrons                        I               10
Number of alpha electrons                  I                5
Number of beta electrons                   I                5
Atomic numbers                             I   N=           5
           6           1           1           1           1
Current cartesian coordinates              R   N=          15
 -5.99014848E-06 -4.21870287E-06  3.77810486E-02  3.13292009E-04 -1.22731357E-04
  1.72589974E+00 -9.41554854E-01  1.70530556E+00 -6.50650310E-01 -1.00620135E+00
 -1.66788435E+00 -6.50825356E-01  1.94747886E+00 -3.72731739E-02 -6.51110363E-01
Nuclear charges                            R   N=           5
  6.00000000E+00  1.00000000E+00  1.00000000E+00  1.00000000E+00  1.00000000E+00
Number of basis functions                  I               23
Number of contracted shells                I               12
Number of primitive shells                 I               27
Highest angular momentum                   I                2
Largest degree of contraction              I                6
Shell types                                I   N=          12
           0          -1          -1           2           0           0
           0           0           0           0           0           0
Number of primitives per shell             I   N=          12
           6           3           1           1           3           1
           3           1           3           1           3           1
Shell to atom map                          I   N=          12
           1           1           1           1           2           2
           3           3           4           4           5           5
Primitive exponents                        R   N=          27
  3.04752490E+03  4.57369510E+02  1.03948690E+02  2.92101550E+01  9.28666300E+00
  3.16392700E+00  7.86827240E+00  1.88128850E+00  5.44249300E-01  1.68714400E-01
  8.00000000E-01  1.87311370E+01  2.82539370E+00  6.40121700E-01  1.61277800E-01
  1.87311370E+01  2.82539370E+00  6.40121700E-01  1.61277800E-01  1.87311370E+01
  2.82539370E+00  6.40121700E-01  1.61277800E-01  1.87311370E+01  2.82539370E+00
  6.40121700E-01  1.61277800E-01
Contraction coefficients                   R   N=          27
  1.83470016E-03  1.40373012E-02  6.88426061E-02  2.32184421E-01  4.67941342E-01
  3.62312032E-01 -1.19332409E-01 -1.60854212E-01  1.14345648E+00  1.00000000E+00
  1.00000000E+00  3.34945995E-02  2.34726947E-01  8.13757318E-01  1.00000000E+00
  3.34945995E-02  2.34726947E-01  8.13757318E-01  1.00000000E+00  3.34945995E-02
  2.34726947E-01  8.13757318E-01  1.00000000E+00  3.34945995E-02  2.34726947E-01
  8.13757318E-01  1.00000000E+00
P(S=P) Contraction coefficients            R   N=          27
  0.00000000E+00  0.00000000E+00  0.00000000E+00  0.00000000E+00  0.00000000E+00
  0.00000000E+00  6.89990956E-02  3.16423980E-01  7.44308252E-01  1.00000000E+00
  0.00000000E+00  0.00000000E+00  0.00000000E+00  0.00000000E+00  0.00000000E+00
  0.00000000E+00  0.00000000E+00  0.00000000E+00  0.00000000E+00  0.00000000E+00
  0.00000000E+00  0.00000000E+00  0.00000000E+00  0.00000000E+00  0.00000000E+00
  0.00000000E+00  0.00000000E+00
Coordinates of each shell                  R   N=          36
 -5.99014848E-06 -4.21870287E-06  3.77810486E-02 -5.99014848E-06 -4.21870287E-06
  3.77810486E-02 -5.99014848E-06 -4.21870287E-06  3.77810486E-02 -5.99014848E-06
 -4.21870287E-06  3.77810486E-02  3.13292009E-04 -1.22731357E-04  1.72589974E+00
  3.13292009E-04 -1.22731357E-04  1.72589974E+00 -9.41554854E-01  1.70530556E+00
 -6.50650310E-01 -9.41554854E-01  1.70530556E+00 -6.50650310E-01 -1.00620135E+00
 -1.66788435E+00 -6.50825356E-01 -1.00620135E+00 -1.66788435E+00 -6.50825356E-01
  1.94747886E+00 -3.72731739E-02 -6.51110363E-01  1.94747886E+00 -3.72731739E-02
 -6.51110363E-01
Overlap Matrix                             R   N=         276
  1.00000000E+00  2.19058872E-01  1.00000000E+00  4.56643127E-22 -3.17352612E-22
  1.00000000E+00  1.91303140E-22 -5.26687610E-22  1.04246706E-42  1.00000000E+00
 -1.75972017E-18  3.20524876E-19  0.00000000E+00  0.00000000E+00  1.00000000E+00
  1.84261053E-01  8.12273068E-01 -7.29018353E-22  0.00000000E+00  0.00000000E+00
  1.00000000E+00  3.47939187E-23 -6.23565968E-22  5.69754058E-01  0.00000000E+00
  0.00000000E+00  6.95835169E-22  1.00000000E+00  1.05112103E-23  0.00000000E+00
  0.00000000E+00  5.69754058E-01  0.00000000E+00  0.00000000E+00  0.00000000E+00
  1.00000000E+00 -5.21881229E-19  0.00000000E+00  0.00000000E+00  0.00000000E+00
  5.69754058E-01  0.00000000E+00  0.00000000E+00  0.00000000E+00  1.00000000E+00
  7.91027073E-02  7.10235064E-01 -6.65201421E-22  0.00000000E+00 -1.26067557E-19
  6.29936196E-01  0.00000000E+00  4.38331760E-22  0.00000000E+00  1.00000000E+00
  7.91027073E-02  7.10235064E-01 -2.21733807E-22  0.00000000E+00 -1.26067557E-19
  6.29936196E-01  0.00000000E+00  1.31499528E-21  0.00000000E+00  3.33333333E-01
  1.00000000E+00  7.91027073E-02  7.10235064E-01 -2.21733807E-22  0.00000000E+00
 -3.78202671E-19  6.29936196E-01  0.00000000E+00  4.38331760E-22  0.00000000E+00
  3.33333333E-01  3.33333333E-01  1.00000000E+00  9.82528136E-44  0.00000000E+00
  0.00000000E+00 -3.84054220E-22  0.00000000E+00  0.00000000E+00  7.59212878E-22
  0.00000000E+00  0.00000000E+00  0.00000000E+00  0.00000000E+00  0.00000000E+00
  1.00000000E+00 -5.00124204E-39  0.00000000E+00 -2.18355414E-19  0.00000000E+00
 -3.84054220E-22  0.00000000E+00  0.00000000E+00  0.00000000E+00  0.00000000E+00
  0.00000000E+00  0.00000000E+00  0.00000000E+00  0.00000000E+00  1.00000000E+00
 -6.37012219E-42  0.00000000E+00  0.00000000E+00 -2.18355414E-19  0.00000000E+00
  0.00000000E+00  0.00000000E+00  0.00000000E+00  7.59212878E-22  0.00000000E+00
  0.00000000E+00  0.00000000E+00  0.00000000E+00  0.00000000E+00  1.00000000E+00
  7.25936396E-02  4.12522901E-01  9.27351348E-05 -3.44218639E-05  4.90312128E-01
  4.55835125E-01  9.65754020E-05 -3.58473123E-05  5.10616510E-01  1.95413401E-01
  1.95413389E-01  6.00311784E-01 -9.31193859E-09  1.32641174E-04 -4.92343753E-05
  1.00000000E+00  1.14544957E-01  5.64345124E-01  4.91873599E-05 -1.82575958E-05
  2.60064960E-01  7.90286308E-01  1.01306216E-04 -3.76033182E-05  5.35629420E-01
  4.23512870E-01  4.23512868E-01  4.88826348E-01 -1.50209318E-09  2.13961251E-05
 -7.94191443E-06  6.58292049E-01  1.00000000E+00  3.22670405E-02  2.71611275E-01
 -1.67367759E-01  3.03132304E-01 -1.22374120E-01  3.75719756E-01 -2.34587448E-01
  4.24878925E-01 -1.71523074E-01  1.86498632E-01  3.46075541E-01  1.53930984E-01
 -2.19527354E-01  8.86229096E-02 -1.60511600E-01  3.41591009E-02  1.90576999E-01
  1.00000000E+00  9.18331960E-02  4.74645936E-01 -1.21080942E-01  2.19298778E-01
 -8.85306338E-02  7.03035538E-01 -2.65764599E-01  4.81346203E-01 -1.94318841E-01
  3.66872587E-01  4.05171172E-01  3.59056325E-01 -5.26867405E-02  2.12695692E-02
 -3.85229124E-02  1.90576999E-01  4.66955730E-01  6.58292049E-01  1.00000000E+00
  3.22688893E-02  2.71619422E-01 -1.78865322E-01 -2.96489059E-01 -1.22409435E-01
  3.75724947E-01 -2.50697636E-01 -4.15559065E-01 -1.71569065E-01  1.96445578E-01
  3.36122461E-01  1.53955841E-01  2.29460275E-01  9.47357140E-02  1.57034926E-01
  3.41621440E-02  1.90583708E-01  1.80275534E-02  1.47834879E-01  1.00000000E+00
  9.18346470E-02  4.74651812E-01 -1.29395999E-01 -2.14488183E-01 -8.85542874E-02
  7.03041419E-01 -2.84014303E-01 -4.70785126E-01 -1.94369876E-01  3.69263071E-01
  4.02784712E-01  3.59065781E-01  5.50691336E-02  2.27360213E-02  3.76874705E-02
  1.90583708E-01  4.66965848E-01  1.47834879E-01  3.99365003E-01  6.58292049E-01
  1.00000000E+00  3.22647783E-02  2.71601305E-01  3.46166304E-01 -6.62457348E-03
 -1.22450757E-01  3.75713404E-01  4.85208753E-01 -9.28542438E-03 -1.71634785E-01
  4.15884338E-01  1.16624041E-01  1.53973868E-01 -9.92297593E-03 -1.83419494E-01
  3.51009298E-03  3.41656755E-02  1.90591494E-01  1.80245548E-02  1.47825061E-01
  1.80244188E-02  1.47824615E-01  1.00000000E+00  9.18314205E-02  4.74638745E-01
  2.50437958E-01 -4.79262320E-03 -8.85883959E-02  7.03028343E-01  5.49697686E-01
 -1.05195470E-02 -1.94446707E-01  4.21923187E-01  3.50098057E-01  3.59062347E-01
 -2.38160237E-03 -4.40223078E-02  8.42453496E-04  1.90591494E-01  4.66977589E-01
  1.47825061E-01  3.99348667E-01  1.47824615E-01  3.99347926E-01  6.58292049E-01
  1.00000000E+00
Core Hamiltonian Matrix                    R   N=         276
 -1.99896026E+01 -4.10828621E+00 -6.81942989E+00 -2.20537113E-06 -1.32167015E-05
 -6.06985508E+00  1.22997199E-06  7.32807308E-06 -2.27934311E-06 -6.06985488E+00
 -1.10609602E-02 -6.26133072E-02 -2.01905526E-05  4.99391471E-06 -6.12625629E+00
 -3.53964081E+00 -5.44884175E+00 -1.02558001E-05  5.19257796E-06 -4.19079883E-02
 -5.49589516E+00 -3.70294584E-07 -6.69884792E-06 -3.10165223E+00 -1.51183993E-06
 -1.15505463E-05 -7.43905467E-06 -3.78159147E+00  2.06551833E-07  3.28031641E-06
 -1.51183993E-06 -3.10165050E+00  2.64023019E-06  1.50969322E-06 -1.29115666E-06
 -3.78158465E+00 -1.85712406E-03 -2.54775560E-02 -1.15505463E-05  2.64023019E-06
 -3.12282691E+00 -7.64054014E-03 -8.23201983E-06  1.68661386E-06 -3.76929664E+00
 -1.50990682E+00 -4.46814584E+00 -5.09351389E-02  2.93184183E-03  1.97294731E-02
 -3.81140865E+00 -4.91770540E-02  2.82973324E-03  2.73515583E-02 -4.83091836E+00
 -1.50990684E+00 -4.46814591E+00  5.09424524E-02 -2.93080315E-03  1.97170220E-02
 -3.81140776E+00  4.91888109E-02 -2.83319165E-03  2.73390232E-02 -2.32142561E+00
 -4.83092658E+00 -1.51232119E+00 -4.51906236E+00 -3.66776356E-05  1.52590645E-05
 -1.75847037E-01 -3.84715376E+00 -2.86808996E-05  1.17129570E-05 -1.16476369E-01
 -2.31846845E+00 -2.31846018E+00 -4.95913063E+00 -1.23473195E-07 -3.49172400E-06
  5.07809901E-03  8.82349158E-02  5.55954220E-06 -3.25252504E-06  4.90124175E-03
  8.51975196E-02  5.12290191E-06 -6.49487598E-06  1.36386772E-06 -4.00507906E-06
 -3.76427684E+00 -1.26731980E-06 -3.09484363E-05  3.41724499E-02  5.55954220E-06
 -6.35275284E-05 -2.62568839E-05  4.73742886E-02  5.12290191E-06 -4.96767753E-05
  2.84393217E-02 -2.84585401E-02 -5.94333921E-05 -2.83598376E-03 -3.75540535E+00
  3.34581500E-07  7.65413309E-06  5.55954220E-06  3.41508839E-02  2.64294751E-05
  6.18698821E-06  5.12290191E-06  4.73525773E-02  2.02874366E-05 -1.63735599E-03
  1.63786861E-03  1.86542921E-05 -4.92916373E-02 -6.93700042E-06 -3.75538054E+00
 -1.40052909E+00 -2.79303640E+00 -5.50699012E-04  2.04294296E-04 -2.89871310E+00
 -2.69247992E+00 -4.63509210E-04  1.71751593E-04 -2.43833887E+00 -1.37511529E+00
 -1.37511401E+00 -3.33625733E+00 -4.36782148E-07 -6.45941815E-04  2.39279841E-04
 -4.77178302E+00 -2.20256318E+00 -3.75056106E+00 -2.80498090E-04  1.04356698E-04
 -1.46022487E+00 -4.08425785E+00 -3.78176618E-04  1.38879423E-04 -1.95635534E+00
 -2.55948477E+00 -2.55948192E+00 -2.95412894E+00 -2.02182130E-06 -1.37129640E-04
  4.91711103E-05 -3.39723310E+00 -4.29369001E+00 -6.23098601E-01 -1.75308352E+00
  9.49464705E-01 -1.71964758E+00  6.90457967E-01 -2.00243231E+00  1.04564419E+00
 -1.89384510E+00  7.62824032E-01 -1.15089866E+00 -1.91794800E+00 -9.94786348E-01
  1.05521608E+00 -4.24242695E-01  7.68375816E-01 -2.78128359E-01 -1.06483489E+00
 -4.07803992E+00 -1.76541299E+00 -3.12560434E+00  6.62653481E-01 -1.20018642E+00
  4.65805559E-01 -3.54567019E+00  9.65210002E-01 -1.74816816E+00  7.01247227E-01
 -2.20338059E+00 -2.40625282E+00 -2.17506813E+00  2.79084838E-01 -1.10423748E-01
  1.99979353E-01 -1.18441352E+00 -2.33056666E+00 -2.98363276E+00 -3.93104569E+00
 -6.23134243E-01 -1.75314129E+00  1.01469222E+00  1.68196583E+00  6.90659322E-01
 -2.00247311E+00  1.11745857E+00  1.85231166E+00  7.63031938E-01 -1.19872084E+00
 -1.87011617E+00 -9.94915044E-01 -1.10296219E+00 -4.53505260E-01 -7.51732737E-01
 -2.78150931E-01 -1.06487603E+00 -1.46751961E-01 -8.35284963E-01 -4.07807848E+00
 -1.76544092E+00 -3.12564546E+00  7.08161615E-01  1.17386430E+00  4.65934134E-01
 -3.54570629E+00  1.03149119E+00  1.70981438E+00  7.01431572E-01 -2.21604706E+00
 -2.39361767E+00 -2.17512244E+00 -2.91709483E-01 -1.18037600E-01 -1.95639340E-01
 -1.18445063E+00 -2.33061338E+00 -8.35279240E-01 -1.96619942E+00 -2.98365677E+00
 -3.93106917E+00 -6.23055191E-01 -1.75301601E+00 -1.96377554E+00  3.75809449E-02
  6.90889914E-01 -2.00238608E+00 -2.16275103E+00  4.13885021E-02  7.63317263E-01
 -2.25349682E+00 -8.15017240E-01 -9.94981319E-01  4.76977457E-02  8.78037851E-01
 -1.68026881E-02 -2.78168843E-01 -1.06489316E+00 -1.46729459E-01 -8.35223050E-01
 -1.46729726E-01 -8.35222707E-01 -4.07800113E+00 -1.76537900E+00 -3.12555777E+00
 -1.37061403E+00  2.62311561E-02  4.66117483E-01 -3.54563079E+00 -1.99641615E+00
  3.82053290E-02  7.01706303E-01 -2.49498784E+00 -2.11452059E+00 -2.17509805E+00
  1.26150660E-02  2.28515815E-01 -4.37063112E-03 -1.18448365E+00 -2.33063911E+00
 -8.35228972E-01 -1.96612443E+00 -8.35234352E-01 -1.96612922E+00 -2.98360890E+00
 -3.93102412E+00
Number of independent functions            I               23
Alpha MO coefficients                      R   N=         529
  9.92634608E-01  5.11998906E-02  3.57434024E-08 -4.02206438E-08  5.08887420E-04
 -1.61052702E-02 -1.75438976E-07  6.50989525E-08 -6.13001420E-04 -9.83932235E-03
 -9.83918042E-03 -9.33417619E-03  1.66323239E-08  1.72126249E-07 -4.08001864E-08
 -3.58301793E-04  3.91595384E-03 -7.48694582E-05  2.58978280E-03 -7.48882086E-05
  2.58985008E-03 -7.46952982E-05  2.58969227E-03 -2.02136964E-01  3.83621280E-01
  1.27378765E-05 -6.90812263E-06  5.71315657E-02  3.29055526E-01  1.59946411E-06
  1.10326318E-06  2.82480328E-03 -1.73207586E-03 -1.73382299E-03  6.54548890E-03
  2.27587594E-07  4.43030995E-06 -6.33183566E-07  1.84841426E-01  4.72580616E-02
  1.23956095E-01  3.34042081E-02  1.23960224E-01  3.34068340E-02  1.23955237E-01
  3.34079407E-02  8.79100913E-03 -1.46551005E-02  2.23334090E-04 -4.02395132E-05
  4.76171178E-01 -6.58275458E-02  9.03984264E-05 -1.55417708E-05  1.88211132E-01
 -1.73579556E-02 -1.73710154E-02  2.93283582E-02  3.23779828E-07  4.48785155E-06
 -3.94653696E-06  2.84366855E-01  2.04441174E-01 -1.13103117E-01 -9.26251953E-02
 -1.13094370E-01 -9.26177978E-02 -1.12958170E-01 -9.25108706E-02 -5.82822943E-07
 -3.03712160E-06  3.89424059E-01  2.17420363E-01 -1.75644115E-04  2.86425137E-05
  1.89885083E-01  1.06011433E-01 -7.08821313E-05  1.52180785E-02 -1.52086918E-02
 -7.75174875E-06 -1.11785251E-02 -8.98031955E-03 -5.01272808E-03 -7.88572095E-05
 -7.40408351E-05  1.34631504E-03  1.13735612E-03 -2.39550004E-01 -2.01822005E-01
  2.38297826E-01  2.00778706E-01 -4.05602066E-07  1.12903551E-06 -2.17417222E-01
  3.89428370E-01  1.44766494E-04 -7.57596993E-06 -1.06012377E-01  1.89881349E-01
  6.55196371E-05 -9.68369967E-03  9.67818672E-03  3.71928611E-06 -1.75684243E-02
  5.01286417E-03 -8.97708746E-03  5.20555471E-05  4.29777560E-05  2.75866142E-01
  2.32427675E-01 -1.36827067E-01 -1.15281913E-01 -1.39099978E-01 -1.17202184E-01
 -1.56845794E-01  1.78838804E-01  2.36405253E-05  1.37808310E-05 -9.78385963E-02
  2.74783922E+00  1.03674004E-04  3.00435229E-05 -2.21726758E-01 -1.60832888E-02
 -1.60812569E-02 -9.32721835E-03  1.80860798E-07  4.33777239E-06  1.67173615E-07
  3.08917446E-02 -8.35136206E-01 -2.30892778E-02 -1.08384825E+00 -2.30853362E-02
 -1.08381625E+00 -2.31088699E-02 -1.08403623E+00  1.71196049E-05 -1.72360297E-05
  3.76873087E-01 -7.78932361E-02 -6.84647442E-05 -3.83676808E-04  1.32728231E+00
 -2.74293790E-01 -2.76052346E-04 -1.36568490E-02  1.36655547E-02 -7.96835296E-07
 -2.32739248E-03  1.69376713E-02 -3.49884758E-03  1.78580878E-05  2.36684618E-04
  7.86309806E-02  1.14528497E+00  4.01873530E-02  5.85480424E-01 -1.18838058E-01
 -1.73048642E+00  5.20622984E-06 -8.99675992E-06  7.78887918E-02  3.76880858E-01
  1.16802699E-05 -1.22671880E-04  2.74326834E-01  1.32726418E+00  5.13808288E-05
 -2.01211258E-03  2.01180860E-03  6.99528622E-07  1.57837732E-02  3.50198487E-03
  1.69346808E-02 -3.42770213E-06  3.58164695E-05 -9.18216508E-02 -1.33707392E+00
  1.14011796E-01  1.66040105E+00 -2.21946720E-02 -3.23188824E-01 -2.76782660E-02
  1.15254814E-02  7.66056599E-05 -2.93941076E-05  3.28154333E-01  1.29392212E+00
  4.16256559E-04 -1.20354113E-04  1.65905722E+00  1.61091333E-03  1.60921965E-03
 -2.01450561E-02  8.25911177E-07 -4.01255211E-06  9.91688018E-07 -5.30964948E-02
 -2.95958107E+00  5.00748511E-02  4.52925829E-01  5.00814281E-02  4.52900322E-01
  5.00742760E-02  4.52650661E-01 -8.85022488E-03 -6.62048920E-02 -2.29339547E-05
  3.77906629E-06 -6.56513883E-01  6.29446150E-01  2.24765131E-04 -5.65881525E-05
  1.61820375E+00  4.55316144E-02  4.55218011E-02 -5.85466299E-02  3.23268522E-06
 -2.32375242E-05  9.32819922E-06 -4.99751143E-01 -6.64166889E-01  1.47686415E-01
  1.06257056E-02  1.47725769E-01  1.05997489E-02  1.47764003E-01  1.04783096E-02
 -1.08019308E-06 -3.67718925E-06  3.45585983E-01  6.78028392E-01 -1.42945511E-05
  3.53053703E-05 -6.56256877E-01 -1.28753703E+00  8.87243081E-06  2.93161402E-02
 -2.93166802E-02  1.84638782E-06 -7.70923925E-02 -2.67082189E-02 -5.23773801E-02
 -4.27789383E-06  6.55778342E-06  2.64362333E-01  1.13696529E-01 -4.70441150E-01
 -2.02399951E-01  2.06080044E-01  8.86659671E-02  7.18334626E-07  8.15129715E-06
 -6.78049846E-01  3.45579812E-01  6.48158859E-05  3.17504573E-05  1.28756665E+00
 -6.56219196E-01  1.53752979E-05 -6.67369658E-02  6.67702616E-02 -2.24870387E-05
 -3.38669395E-02  5.23929255E-02 -2.66910932E-02 -4.59244338E-05 -1.71525353E-04
  3.90609079E-01  1.68064550E-01  3.36650675E-02  1.45366451E-02 -4.24214789E-01
 -1.82487723E-01 -1.65411890E-05  2.06455754E-04  8.08789803E-01 -2.69707434E-01
 -3.43679066E-04 -3.02658552E-04 -1.17299208E+00  3.91164181E-01  5.12840054E-04
 -1.36494433E-01  1.36495345E-01  1.45671648E-05 -4.26853312E-02  1.22301291E-01
 -4.07606896E-02  8.67252846E-05 -3.40396061E-04  6.12063818E-01 -1.18727684E+00
  1.82220827E-01 -3.53504171E-01 -7.94819812E-01  1.54159850E+00  1.09581867E-05
 -1.43412310E-04 -2.69711401E-01 -8.08805110E-01  9.23665431E-05  2.21924869E-04
  3.91163646E-01  1.17303301E+00 -1.42838020E-04  3.69527333E-02 -3.69362310E-02
 -3.02190245E-05 -1.57637916E-01 -4.07945552E-02 -1.22265427E-01 -2.79519687E-05
  1.41363593E-04  5.64196193E-01 -1.09433762E+00 -8.12147536E-01  1.57539127E+00
  2.48284519E-01 -4.81533182E-01  6.75637474E-02 -7.24319523E-01  3.95027084E-04
  2.69265465E-05  6.13177709E-01  1.00889925E+00 -5.90586126E-04 -2.69785946E-05
 -9.61413660E-01  4.63150482E-02  4.64037972E-02 -1.66319937E-01  1.98285253E-05
  1.80623632E-05  2.11702877E-05 -1.55719616E-01  9.37861950E-01  6.46965755E-01
 -8.73900938E-01  6.47081172E-01 -8.74126642E-01  6.46597421E-01 -8.73178326E-01
  1.23647274E-01  1.72126459E+00 -4.52672208E-05  1.92021918E-05 -2.60569998E-01
 -5.42587646E+00 -3.44733727E-05  2.40294588E-05 -4.68990221E-03  6.61761275E-02
  6.61141215E-02  1.30050826E-01  8.29646764E-06  4.19746350E-05 -1.71995492E-05
  5.64702714E-01  1.19821313E+00  4.34421984E-01  9.14224158E-01  4.34419723E-01
  9.14271587E-01  4.34475278E-01  9.14182758E-01  2.41713314E-02 -1.28042205E+00
 -1.51798942E-04  6.32425122E-05 -7.23051044E-01  2.76477294E+00  2.12407975E-04
 -8.86553507E-05  9.97898550E-01 -1.80195649E-01 -1.80209237E-01  1.77251880E-01
  4.53750710E-06  7.39907000E-05 -2.53338905E-05  9.94498751E-01 -2.14961311E+00
  1.42786162E-01 -2.54371255E-01  1.42811515E-01 -2.54417405E-01  1.42844217E-01
 -2.54457430E-01  9.84158078E-06  9.76144403E-05  1.55181279E-02 -3.32220480E-04
 -1.41402743E-05 -3.45644851E-04 -8.71645462E-04  1.87764530E-05 -8.12861733E-06
 -4.90046527E-01  4.89792837E-01  2.49966745E-04  2.04192149E-02 -8.24056945E-01
  1.77486831E-02  5.42633738E-05  8.57354319E-05  9.86161992E-03 -5.62338038E-03
  9.78555595E-03 -5.57935243E-03 -1.94738411E-02  1.13464883E-02 -3.55211872E-06
 -2.86043532E-05  3.34898842E-04  1.55193617E-02  2.58217882E-06  1.08712360E-04
 -2.16250951E-05 -8.68747363E-04  1.40946968E-06  1.76317237E-02 -1.75436218E-02
 -9.10164318E-05  5.65476148E-01 -1.76820209E-02 -8.24222048E-01 -1.36274174E-05
 -2.72443112E-05 -1.69238749E-02  9.76127233E-03  1.69323551E-02 -9.81912431E-03
 -6.13051048E-05  1.26102390E-05 -3.18565419E-06  3.06169953E-05 -1.53296882E-01
  2.12774812E-02  1.49835133E-05 -1.99006125E-05 -4.26643692E-01  5.92177694E-02
  1.97749650E-06 -8.02594638E-01  8.02788036E-01 -2.11596072E-04 -7.47894434E-02
  6.34185573E-01 -8.79478267E-02  1.25530788E-05  6.17926041E-05 -4.67572978E-01
  5.32347883E-02 -3.07400024E-01  3.49846136E-02  7.74910848E-01 -8.82467555E-02
 -1.62891232E-06  9.41137250E-06 -2.12858272E-02 -1.53317319E-01 -1.66694843E-07
  2.88441606E-05 -5.92327400E-02 -4.26631931E-01 -3.26087898E-06 -6.47135232E-02
  6.46444756E-02  6.97786980E-05  9.27046252E-01  8.80880556E-02  6.33940144E-01
 -3.08390747E-05 -9.54199166E-06  6.24886368E-01 -7.11690807E-02 -7.17379943E-01
  8.16896954E-02  9.24776701E-02 -1.05277054E-02 -1.32740867E-02  2.42855582E-01
  8.60156037E-05 -2.57442368E-05  4.84399250E-01  2.32350829E-01  1.10986796E-04
 -2.85324730E-05  4.42462254E-01 -6.30154439E-01 -6.30146359E-01  1.24262931E+00
 -2.16900407E-05  3.81745480E-04 -1.59846049E-04 -1.32260062E+00  8.16471699E-02
  2.38440064E-01 -6.85558097E-02  2.38478880E-01 -6.85752693E-02  2.38475341E-01
 -6.86260316E-02  4.95353788E-01 -2.88831930E+00  1.37785452E-05 -7.99188078E-06
  7.99014717E-02 -2.70183692E+00 -2.81080835E-05  1.04913912E-05 -7.55333925E-02
  1.86221393E+00  1.86223219E+00  1.97976408E+00  1.66231941E-06  2.86514002E-05
 -8.16448718E-06 -2.88170527E-01  7.50469833E-01 -1.14112646E-01  4.92372559E-01
 -1.14120040E-01  4.92387196E-01 -1.14093145E-01  4.92363607E-01
Alpha Orbital Energies                     R   N=          23
 -1.01464440E+01 -7.11529620E-01 -4.18607346E-01 -3.87668918E-01 -3.87664808E-01
  1.24213934E-01  1.76133394E-01  1.76143010E-01  2.22787282E-01  4.83290954E-01
  5.37202025E-01  5.37208322E-01  8.97645548E-01  8.97661319E-01  9.35198785E-01
  1.11253228E+00  1.16152483E+00  1.64312997E+00  1.64314516E+00  2.23930345E+00
  2.23933259E+00  2.49171053E+00  4.21538517E+00
Total SCF Density                          R   N=         276
  2.05252020E+00 -5.37001809E-02  3.00002974E-01 -1.42952786E-06  3.74334085E-07
  3.97842793E-01  1.43609215E-06 -4.56620330E-06  5.53801340E-07  3.97852143E-01
 -1.37144735E-02  2.99292071E-02  1.43964727E-05 -2.73603236E-06  4.60006634E-01
 -1.66159248E-01  2.52745646E-01  4.58117656E-06  7.30705669E-06 -2.51078491E-02
  2.25740371E-01  4.59130462E-07 -2.83317568E-06  1.93989513E-01  1.30590129E-06
 -1.11256436E-05  1.64072825E-06  9.45899542E-02 -8.67641616E-07  1.09349535E-06
 -1.52013138E-07  1.93988458E-01  3.06138735E-06  5.96592318E-06  4.30762812E-07
  9.45867017E-02  9.50164418E-04 -3.41196744E-03  4.43234214E-07  5.02194609E-06
  1.79563623E-01 -2.29001795E-02 -6.77347203E-06  4.00916610E-06  7.08635894E-02
 -1.91386684E-02 -1.82781591E-03  1.60555799E-02 -9.23352773E-04 -1.67467927E-02
  1.46331336E-03  7.82941591E-03 -4.50392825E-04 -6.53506978E-03  1.45294986E-03
 -1.91378902E-02 -1.82853052E-03 -1.60614739E-02  9.25985139E-04 -1.67431351E-02
  1.46184200E-03 -7.83096529E-03  4.51358708E-04 -6.53314523E-03  1.52343152E-04
  1.45307879E-03 -2.06613714E-02  3.20654003E-03  5.61141973E-06 -2.92398594E-06
  2.86690495E-02  7.47089255E-04  1.59422493E-06 -1.12950361E-06  1.10882717E-02
 -8.57459277E-04 -8.57635097E-04  1.98024588E-03 -2.60136067E-08  1.95058313E-07
 -1.06701711E-03 -1.85441637E-02 -8.25383025E-07 -2.67551498E-07 -5.20329459E-04
 -9.04193515E-03 -5.94294873E-07  1.09864876E-08 -5.18601466E-08  6.42829510E-08
  8.67217911E-04 -1.36403496E-06  3.35107625E-06 -9.17406887E-03 -7.06042707E-07
  9.38643749E-06  1.72885069E-06 -4.47330792E-03 -3.34405927E-07  3.64411618E-06
 -3.70587093E-04  3.70014028E-04  4.94541325E-07  2.46372109E-05  2.11549972E-04
  1.18717484E-07 -3.64131890E-07 -6.08785765E-07 -9.17160307E-03 -4.66909595E-06
 -4.69431984E-08 -3.20537977E-07 -4.47197581E-03 -1.95481692E-06  2.14346625E-05
 -2.11496753E-05 -2.28080115E-07  4.27496373E-04  2.99187312E-08  2.11431116E-04
 -7.04381516E-02  1.33446670E-01  4.76732402E-05 -1.91858657E-05  2.91934839E-01
  8.42193770E-02  1.10193724E-05 -5.38209478E-06  1.08086754E-01 -1.05087306E-02
 -1.05099896E-02  1.91064715E-02  2.02214533E-07  6.12829939E-06 -2.62261138E-06
  2.30061997E-01 -7.73649106E-03  3.06671776E-02  1.61668077E-05 -1.58289260E-05
  2.00101867E-01  4.05919135E-03 -1.18726533E-07 -5.62697126E-06  7.72184139E-02
 -7.34121728E-03 -7.34055131E-03  1.25373992E-02  2.99260579E-07  4.01579110E-06
 -1.70317190E-06  1.33740292E-01  8.80897197E-02 -5.22496598E-02  9.84124149E-02
 -1.18954887E-01  2.15453026E-01 -9.34699540E-02  9.64657862E-02 -5.79992126E-02
  1.05052909E-01 -4.18381779E-02 -1.80328470E-03  8.79988611E-03 -5.00812210E-03
 -9.72318330E-03  2.74166144E-03 -4.96571063E-03 -1.84725504E-02 -3.45070919E-02
  2.08522750E-01 -9.99176207E-03  2.86097043E-02 -1.00222253E-01  1.81529423E-01
 -8.43244956E-02  3.40913822E-02 -4.88651271E-02  8.85114597E-02 -3.46503442E-02
 -1.41801545E-03  7.51555223E-03 -5.04243175E-03 -8.19224865E-03  2.30929459E-03
 -4.18376107E-03 -4.03079450E-02 -3.46754781E-02  1.57474234E-01  1.27451786E-01
 -5.22505969E-02  9.84158558E-02 -1.27123306E-01 -2.10727392E-01 -9.34960169E-02
  9.64598059E-02 -6.19832705E-02 -1.02748106E-01 -4.18547907E-02 -1.14276631E-03
  8.13876018E-03 -5.00688977E-03  1.01632866E-02  2.93076341E-03  4.85895085E-03
 -1.84710227E-02 -3.45029264E-02 -1.98230163E-02 -3.49177269E-02  2.08524661E-01
 -9.99204139E-03  2.86119568E-02 -1.07100660E-01 -1.77541529E-01 -8.43465267E-02
  3.40857763E-02 -5.22199963E-02 -8.65676971E-02 -3.46643361E-02 -8.61355226E-04
  6.95838089E-03 -5.04140460E-03  8.56274311E-03  2.46853264E-03  4.09383781E-03
 -4.03069578E-02 -3.46720376E-02 -3.49158881E-02 -3.46457457E-02  1.57471249E-01
  1.27445643E-01 -5.22463582E-02  9.84051494E-02  2.46035978E-01 -4.70997735E-03
 -9.35353974E-02  9.64659940E-02  1.19971018E-01 -2.29660981E-03 -4.18715898E-02
  1.34403908E-02 -6.44483428E-03 -5.00639480E-03 -4.40118350E-04 -5.67447543E-03
  1.09115540E-04 -1.84710048E-02 -3.45186621E-02 -1.98224328E-02 -3.49128987E-02
 -1.98222916E-02 -3.49106760E-02  2.08518224E-01 -9.99138980E-03  2.86072058E-02
  2.07299193E-01 -3.96996935E-03 -8.43865539E-02  3.40955242E-02  1.01082907E-01
 -1.93639106E-03 -3.46814059E-02  1.14257411E-02 -5.32856443E-03 -5.04137117E-03
 -3.70748840E-04 -4.78168457E-03  9.20580734E-05 -4.03094314E-02 -3.46879964E-02
 -3.49152221E-02 -3.46423284E-02 -3.49131765E-02 -3.46387108E-02  1.57477409E-01
  1.27458997E-01
Pure Switching                             I                1
Dipole_Data                                R   N=           3
 -2.18636511E-06 -3.26946062E-05  8.97225413E-02
Quadrupole_Data                            R   N=           6
 -8.06188181E+00  1.52110930E-05 -8.06193741E+00  1.02788315E-04 -2.72266083E-05
 -8.18127693E+00
Octapole_Data                              R   N=          10
  5.30331627E-01 -3.05378492E-02 -5.30517017E-01  3.04860835E-02 -1.46792257E-01
 -2.75928475E-05 -1.46644581E-01  1.76335995E-04 -9.46245877E-05  9.69698004E-01
Hexadecapole_Data                          R   N=          15
 -1.48952436E+01  6.48750665E-05 -4.96486368E+00 -3.31347125E-05 -1.48946158E+01
 -2.98955259E-01  1.72045305E-02  2.99123954E-01 -1.72318909E-02 -4.70143162E+00
  3.80385996E-05 -4.70149333E+00  2.76503432E-04 -6.65518228E-05 -1.25074139E+01
