Jobname.Temp
SP        R                             6-31G(d)            
Number of atoms                            I                5
Charge                                     I                0
Multiplicity                               I                1
Number of electrons                        I               10
Number of alpha electrons                  I                5
Number of beta electrons                   I                5
Atomic numbers                             I   N=           5
           6           1           1           1           1
Current cartesian coordinates              R   N=          15
 -6.36315797E-06 -4.11174863E-06  1.88837889E-02  6.66852231E-04 -2.57066966E-04
  1.89597499E+00 -9.41756462E-01  1.70530342E+00 -6.69277843E-01 -1.00623574E+00
 -1.66788967E+00 -6.69659747E-01  1.94736353E+00 -3.71320063E-02 -6.70340129E-01
Nuclear charges                            R   N=           5
  6.00000000E+00  1.00000000E+00  1.00000000E+00  1.00000000E+00  1.00000000E+00
Number of basis functions                  I               23
Number of contracted shells                I               12
Number of primitive shells                 I               27
Highest angular momentum                   I                2
Largest degree of contraction              I                6
Shell types                                I   N=          12
           0          -1          -1           2           0           0
           0           0           0           0           0           0
Number of primitives per shell             I   N=          12
           6           3           1           1           3           1
           3           1           3           1           3           1
Shell to atom map                          I   N=          12
           1           1           1           1           2           2
           3           3           4           4           5           5
Primitive exponents                        R   N=          27
  3.04752490E+03  4.57369510E+02  1.03948690E+02  2.92101550E+01  9.28666300E+00
  3.16392700E+00  7.86827240E+00  1.88128850E+00  5.44249300E-01  1.68714400E-01
  8.00000000E-01  1.87311370E+01  2.82539370E+00  6.40121700E-01  1.61277800E-01
  1.87311370E+01  2.82539370E+00  6.40121700E-01  1.61277800E-01  1.87311370E+01
  2.82539370E+00  6.40121700E-01  1.61277800E-01  1.87311370E+01  2.82539370E+00
  6.40121700E-01  1.61277800E-01
Contraction coefficients                   R   N=          27
  1.83470016E-03  1.40373012E-02  6.88426061E-02  2.32184421E-01  4.67941342E-01
  3.62312032E-01 -1.19332409E-01 -1.60854212E-01  1.14345648E+00  1.00000000E+00
  1.00000000E+00  3.34945995E-02  2.34726947E-01  8.13757318E-01  1.00000000E+00
  3.34945995E-02  2.34726947E-01  8.13757318E-01  1.00000000E+00  3.34945995E-02
  2.34726947E-01  8.13757318E-01  1.00000000E+00  3.34945995E-02  2.34726947E-01
  8.13757318E-01  1.00000000E+00
P(S=P) Contraction coefficients            R   N=          27
  0.00000000E+00  0.00000000E+00  0.00000000E+00  0.00000000E+00  0.00000000E+00
  0.00000000E+00  6.89990956E-02  3.16423980E-01  7.44308252E-01  1.00000000E+00
  0.00000000E+00  0.00000000E+00  0.00000000E+00  0.00000000E+00  0.00000000E+00
  0.00000000E+00  0.00000000E+00  0.00000000E+00  0.00000000E+00  0.00000000E+00
  0.00000000E+00  0.00000000E+00  0.00000000E+00  0.00000000E+00  0.00000000E+00
  0.00000000E+00  0.00000000E+00
Coordinates of each shell                  R   N=          36
 -6.36315797E-06 -4.11174863E-06  1.88837889E-02 -6.36315797E-06 -4.11174863E-06
  1.88837889E-02 -6.36315797E-06 -4.11174863E-06  1.88837889E-02 -6.36315797E-06
 -4.11174863E-06  1.88837889E-02  6.66852231E-04 -2.57066966E-04  1.89597499E+00
  6.66852231E-04 -2.57066966E-04  1.89597499E+00 -9.41756462E-01  1.70530342E+00
 -6.69277843E-01 -9.41756462E-01  1.70530342E+00 -6.69277843E-01 -1.00623574E+00
 -1.66788967E+00 -6.69659747E-01 -1.00623574E+00 -1.66788967E+00 -6.69659747E-01
  1.94736353E+00 -3.71320063E-02 -6.70340129E-01  1.94736353E+00 -3.71320063E-02
 -6.70340129E-01
Overlap Matrix                             R   N=         276
  1.00000000E+00  2.19058872E-01  1.00000000E+00  6.14179601E-22  5.29540608E-22
  1.00000000E+00  3.39877498E-22  5.19424489E-23  2.10493702E-43  1.00000000E+00
  1.30787810E-18  0.00000000E+00  0.00000000E+00  0.00000000E+00  1.00000000E+00
  1.84261053E-01  8.12273068E-01 -7.29018353E-22  0.00000000E+00  2.06182644E-19
  1.00000000E+00  4.53786241E-23 -6.23565968E-22  5.69754058E-01  0.00000000E+00
  0.00000000E+00  0.00000000E+00  1.00000000E+00  1.09527173E-24  0.00000000E+00
  0.00000000E+00  5.69754058E-01  0.00000000E+00  0.00000000E+00  0.00000000E+00
  1.00000000E+00  9.49170035E-24 -5.22159873E-20  0.00000000E+00  0.00000000E+00
  5.69754058E-01  0.00000000E+00  0.00000000E+00  0.00000000E+00  1.00000000E+00
  7.91027073E-02  7.10235064E-01  0.00000000E+00 -2.06344701E-22  0.00000000E+00
  6.29936196E-01  1.31499528E-21  4.38331760E-22  0.00000000E+00  1.00000000E+00
  7.91027073E-02  7.10235064E-01  0.00000000E+00 -6.19034103E-22  0.00000000E+00
  6.29936196E-01  4.38331760E-22  1.31499528E-21  0.00000000E+00  3.33333333E-01
  1.00000000E+00  7.91027073E-02  7.10235064E-01  0.00000000E+00 -2.06344701E-22
  0.00000000E+00  6.29936196E-01  4.38331760E-22  4.38331760E-22  0.00000000E+00
  3.33333333E-01  3.33333333E-01  1.00000000E+00  5.99020010E-43  0.00000000E+00
 -3.57399506E-22  0.00000000E+00  0.00000000E+00  1.51664364E-42  7.59212878E-22
  7.59212878E-22  0.00000000E+00  0.00000000E+00  0.00000000E+00  0.00000000E+00
  1.00000000E+00 -2.49743596E-39  0.00000000E+00  0.00000000E+00  0.00000000E+00
  0.00000000E+00  0.00000000E+00  0.00000000E+00  0.00000000E+00  7.59212878E-22
  0.00000000E+00  0.00000000E+00  0.00000000E+00  0.00000000E+00  1.00000000E+00
 -2.45040090E-39  0.00000000E+00  0.00000000E+00  0.00000000E+00 -3.57399506E-22
  0.00000000E+00  0.00000000E+00  0.00000000E+00  7.59212878E-22  0.00000000E+00
  0.00000000E+00  0.00000000E+00  0.00000000E+00  0.00000000E+00  1.00000000E+00
  4.92503331E-02  3.38434980E-01  1.54390742E-04 -5.80110678E-05  4.30479616E-01
  4.15852476E-01  1.85712218E-04 -6.97798581E-05  5.17811647E-01  1.52781655E-01
  1.52781613E-01  5.30270517E-01 -3.16003400E-08  2.34494946E-04 -8.81095723E-05
  1.00000000E+00  1.03133508E-01  5.19822126E-01  9.51864487E-05 -3.57655353E-05
  2.65403388E-01  7.47580771E-01  2.02064092E-04 -7.59239422E-05  5.63404722E-01
  3.86896263E-01  3.86896255E-01  4.60668929E-01 -6.17565593E-09  4.58273584E-05
 -1.72192579E-05  6.58292049E-01  1.00000000E+00  3.22670405E-02  2.71611275E-01
 -1.67403530E-01  3.03131903E-01 -1.22326174E-01  3.75719756E-01 -2.34637585E-01
  4.24878364E-01 -1.71455871E-01  1.86528548E-01  3.46074934E-01  1.53901675E-01
 -2.19573983E-01  8.86071209E-02 -1.60448500E-01  2.50853582E-02  1.68628771E-01
  1.00000000E+00  9.18331960E-02  4.74645936E-01 -1.21106821E-01  2.19298488E-01
 -8.84959475E-02  7.03035538E-01 -2.65821400E-01  4.81345567E-01 -1.94242707E-01
  3.66879767E-01  4.05171027E-01  3.59049291E-01 -5.26979315E-02  2.12657799E-02
 -3.85077683E-02  1.68628771E-01  4.33076934E-01  6.58292049E-01  1.00000000E+00
  3.22688893E-02  2.71619422E-01 -1.78871368E-01 -2.96490025E-01 -1.22398260E-01
  3.75724947E-01 -2.50706110E-01 -4.15560419E-01 -1.71553401E-01  1.96450981E-01
  3.36123892E-01  1.53949007E-01  2.29468779E-01  9.47302669E-02  1.57021101E-01
  2.50877350E-02  1.68635119E-01  1.80275534E-02  1.47834879E-01  1.00000000E+00
  9.18346470E-02  4.74651812E-01 -1.29400373E-01 -2.14488882E-01 -8.85462027E-02
  7.03041419E-01 -2.84023903E-01 -4.70786660E-01 -1.94352130E-01  3.69264368E-01
  4.02785055E-01  3.59064140E-01  5.50711746E-02  2.27347140E-02  3.76841525E-02
  1.68635119E-01  4.33086972E-01  1.47834879E-01  3.99365003E-01  6.58292049E-01
  1.00000000E+00  3.22647783E-02  2.71601305E-01  3.46145871E-01 -6.59949990E-03
 -1.22509860E-01  3.75713404E-01  4.85180112E-01 -9.25027965E-03 -1.71717628E-01
  4.15848996E-01  1.16623213E-01  1.54010038E-01 -9.88483458E-03 -1.83497193E-01
  3.49849531E-03  2.50908111E-02  1.68643335E-01  1.80245548E-02  1.47825061E-01
  1.80244188E-02  1.47824615E-01  1.00000000E+00  9.18314205E-02  4.74638745E-01
  2.50423176E-01 -4.77448342E-03 -8.86311548E-02  7.03028343E-01  5.49665238E-01
 -1.04797312E-02 -1.94540560E-01  4.21914705E-01  3.50097858E-01  3.59071028E-01
 -2.37244811E-03 -4.40409563E-02  8.39669951E-04  1.68643335E-01  4.33099962E-01
  1.47825061E-01  3.99348667E-01  1.47824615E-01  3.99347926E-01  6.58292049E-01
  1.00000000E+00
Core Hamiltonian Matrix                    R   N=         276
 -1.99299663E+01 -4.09522294E+00 -6.76572893E+00 -1.79867782E-06 -1.16591770E-05
 -6.02820486E+00  1.08667831E-06  6.79667974E-06 -2.27806574E-06 -6.02820466E+00
 -4.69902489E-03 -2.86762481E-02 -1.87690404E-05  4.50825156E-06 -6.05398422E+00
 -3.52865291E+00 -5.41170970E+00 -9.64218404E-06  4.99797021E-06 -2.03891417E-02
 -5.46873855E+00 -3.02136604E-07 -6.53414252E-06 -3.08516630E+00 -1.51097133E-06
 -1.16485337E-05 -7.92241878E-06 -3.76866305E+00  1.82540091E-07  3.24026091E-06
 -1.51097133E-06 -3.08516457E+00  2.69522849E-06  1.69757166E-06 -1.29041280E-06
 -3.76865622E+00 -7.89311224E-04 -1.29762564E-02 -1.16485337E-05  2.69522849E-06
 -3.09660564E+00 -5.37686003E-03 -9.11359105E-06  2.00730733E-06 -3.76463674E+00
 -1.50567259E+00 -4.44092722E+00 -5.09163144E-02  2.92183582E-03  2.83119898E-02
 -3.79079655E+00 -4.91596493E-02  2.82016131E-03  3.09976811E-02 -4.79799417E+00
 -1.50567261E+00 -4.44092728E+00  5.09493038E-02 -2.93050910E-03  2.82819055E-02
 -3.79079567E+00  4.91951690E-02 -2.83263929E-03  3.09681198E-02 -2.31046004E+00
 -4.79801377E+00 -1.50663926E+00 -4.46442699E+00 -5.96402445E-05  2.40687755E-05
 -1.20959208E-01 -3.80887855E+00 -5.25823312E-05  2.08374969E-05 -9.49346639E-02
 -2.30302075E+00 -2.30300109E+00 -4.86522971E+00 -1.23408076E-07 -3.48975305E-06
  5.06076809E-03  8.82467827E-02  1.04095438E-05 -3.25065814E-06  4.88466268E-03
  8.52085323E-02  9.80562774E-06 -9.16069036E-06  7.15032661E-06 -7.12050775E-06
 -3.73138012E+00 -1.07689661E-06 -2.88669228E-05  4.90378049E-02  1.04095438E-05
 -1.03299934E-04 -2.57798913E-05  5.36895586E-02  9.80562774E-06 -9.10752693E-05
  2.84505110E-02 -2.84551256E-02 -7.01411160E-05 -2.83103842E-03 -3.70906224E+00
  2.66626500E-07  6.94778845E-06  1.04095438E-05  4.89856972E-02  4.16883421E-05
  6.06092977E-06  9.80562774E-06  5.36383569E-02  3.60916034E-05 -1.63450079E-03
  1.62950162E-03  2.28885724E-05 -4.92857234E-02 -1.23330812E-05 -3.70900326E+00
 -9.47786446E-01 -2.22522791E+00 -8.91150770E-04  3.34704735E-04 -2.47930998E+00
 -2.32256677E+00 -8.55590797E-04  3.21196337E-04 -2.38005664E+00 -1.06622158E+00
 -1.06622044E+00 -2.87559318E+00 -1.90302919E-07 -1.12683039E-03  4.22992093E-04
 -4.37961681E+00 -1.97685913E+00 -3.41970054E+00 -5.29013602E-04  1.98912179E-04
 -1.46344741E+00 -3.80246193E+00 -7.42145366E-04  2.77393445E-04 -2.04753304E+00
 -2.32587843E+00 -2.32587564E+00 -2.74021661E+00 -1.79184646E-06 -2.64450398E-04
  9.78020337E-05 -3.16714079E+00 -4.09685459E+00 -6.21397722E-01 -1.74564721E+00
  9.45613734E-01 -1.71230445E+00  6.89227205E-01 -1.99503009E+00  1.04225185E+00
 -1.88729511E+00  7.60724012E-01 -1.14636942E+00 -1.90979116E+00 -9.90413431E-01
  1.05064974E+00 -4.23123772E-01  7.66184569E-01 -2.03583829E-01 -9.44158752E-01
 -4.06305068E+00 -1.76009178E+00 -3.10715692E+00  6.59605110E-01 -1.19440799E+00
  4.72961996E-01 -3.53024826E+00  9.62343350E-01 -1.74260166E+00  7.00334855E-01
 -2.19249882E+00 -2.39448515E+00 -2.15770597E+00  2.77978343E-01 -1.11034819E-01
  2.01043260E-01 -9.95263626E-01 -2.13963619E+00 -2.97377617E+00 -3.91747308E+00
 -6.21433256E-01 -1.74570460E+00  1.01039484E+00  1.67479113E+00  6.89635522E-01
 -1.99507064E+00  1.11363285E+00  1.84591370E+00  7.61160162E-01 -1.19385721E+00
 -1.86218608E+00 -9.90648981E-01 -1.09799665E+00 -4.52363785E-01 -7.49817832E-01
 -2.03601273E-01 -9.44197101E-01 -1.46306110E-01 -8.32338448E-01 -4.06308892E+00
 -1.76011961E+00 -3.10719767E+00  7.04777065E-01  1.16821776E+00  4.73235058E-01
 -3.53028414E+00  1.02824270E+00  1.70437796E+00  7.00729968E-01 -2.20508130E+00
 -2.38190528E+00 -2.15778819E+00 -2.90502006E-01 -1.18705221E-01 -1.96740477E-01
 -9.95297018E-01 -2.13968156E+00 -8.32332780E-01 -1.95831752E+00 -2.97379996E+00
 -3.91749638E+00 -6.21354392E-01 -1.74557965E+00 -1.95527679E+00  3.72788545E-02
  6.90262029E-01 -1.99498381E+00 -2.15514654E+00  4.10892966E-02  7.61882034E-01
 -2.24365045E+00 -8.11865272E-01 -9.90920471E-01  4.72987277E-02  8.76249700E-01
 -1.67060047E-02 -2.03617903E-01 -9.44218492E-01 -1.46283668E-01 -8.32276696E-01
 -1.46283929E-01 -8.32276343E-01 -4.06301176E+00 -1.76005785E+00 -3.10711020E+00
 -1.36393591E+00  2.60060089E-02  4.73694357E-01 -3.53020895E+00 -1.98994471E+00
  3.79396585E-02  7.01407610E-01 -2.48280546E+00 -2.10397089E+00 -2.15781811E+00
  1.25140844E-02  2.29920258E-01 -4.38118134E-03 -9.95332332E-01 -2.13971343E+00
 -8.32282667E-01 -1.95824278E+00 -8.32287982E-01 -1.95824750E+00 -2.97375222E+00
 -3.91745164E+00
Number of independent functions            I               23
Alpha MO coefficients                      R   N=         529
 -9.92736401E-01 -5.03471949E-02  2.06284783E-08  2.49409107E-08 -1.66972750E-04
  1.52648977E-02  1.25983047E-07 -5.14597403E-08  2.47308951E-04  9.53492287E-03
  9.53477625E-03  9.33462303E-03 -1.89676108E-08 -1.53986127E-07  3.04335317E-08
  2.55762011E-04 -3.16171379E-03  1.26417166E-04 -2.60076029E-03  1.26438179E-04
 -2.60082345E-03  1.26234012E-04 -2.60064026E-03  1.99674145E-01 -3.81459293E-01
 -1.03072109E-05  6.41953596E-06 -2.62081205E-02 -3.48231162E-01  5.07681935E-07
 -5.04646093E-07 -2.64493993E-03 -3.08127835E-04 -3.07257643E-04 -4.07416588E-03
 -2.74143030E-07 -3.97101725E-06  5.15451828E-07 -1.59120474E-01 -4.22823709E-02
 -1.29653664E-01 -3.63475538E-02 -1.29657668E-01 -3.63497617E-02 -1.29651834E-01
 -3.63518653E-02 -4.66415322E-03  7.04750524E-03 -4.12212344E-04  8.07237166E-05
 -4.61246913E-01  3.11844257E-02 -1.81364282E-04  3.57304978E-05 -2.02346354E-01
  1.47534984E-02  1.47745729E-02 -2.75892333E-02 -5.52039788E-07 -7.61188548E-06
  6.39390859E-06 -2.90342663E-01 -2.25326038E-01  1.05622282E-01  8.79252220E-02
  1.05603270E-01  8.79097233E-02  1.05365145E-01  8.77174859E-02 -1.10479024E-06
 -2.96468715E-08  3.84371925E-01  2.25500345E-01 -3.13345040E-04  1.87711097E-05
  1.86963692E-01  1.09682549E-01 -1.42125071E-04  1.50524916E-02 -1.50409725E-02
 -1.01031533E-05 -1.15831769E-02 -1.09682829E-02 -6.42999459E-03 -1.37846058E-04
 -1.20716261E-04  7.25390561E-03  6.11610081E-03 -2.42716110E-01 -2.04542555E-01
  2.35616748E-01  1.98571931E-01 -3.85962552E-08  2.97283642E-07  2.25496433E-01
 -3.84376939E-01 -2.78018211E-04  4.75862079E-06  1.09683584E-01 -1.86960568E-01
 -1.31526035E-04  1.00333096E-02 -1.00277892E-02 -4.13882462E-06  1.73817041E-02
 -6.43241558E-03  1.09566469E-02 -9.81697681E-05 -8.13553047E-05 -2.76130341E-01
 -2.32710220E-01  1.31883861E-01  1.11145812E-01  1.44354423E-01  1.21660954E-01
  1.59888291E-01 -1.86864539E-01 -1.48991305E-05 -1.67404468E-05  6.35269950E-02
 -2.68965634E+00 -8.39675737E-05 -4.07196398E-05  1.47624599E-01  1.47174390E-02
  1.47158139E-02  9.72449496E-03 -3.07137489E-07 -4.13723685E-06  1.44496356E-07
 -1.26324401E-02  8.65797829E-01  2.20962917E-02  1.05910210E+00  2.20908849E-02
  1.05905842E+00  2.21120830E-02  1.05927355E+00  1.87603391E-05 -1.55255387E-05
  3.75257199E-01 -7.91358003E-02 -1.97152470E-04 -4.29588441E-04  1.32987384E+00
 -2.80416552E-01 -7.57061212E-04 -1.36420631E-02  1.36517480E-02 -9.73454811E-07
 -2.39333789E-03  1.38147533E-02 -2.90982493E-03  3.81958896E-05  5.77339708E-04
  7.87521358E-02  1.15234763E+00  3.95919747E-02  5.79478292E-01 -1.18380779E-01
 -1.73183030E+00  6.15032981E-06 -8.78710543E-06  7.91324016E-02  3.75269535E-01
  1.63874980E-05 -1.42593967E-04  2.80447996E-01  1.32984794E+00  5.99279240E-05
 -2.06769974E-03  2.06700798E-03  1.55399493E-06  1.57697709E-02  2.91547009E-03
  1.38083329E-02 -1.01312406E-07  7.91951824E-05 -9.12164519E-02 -1.33438567E+00
  1.13818714E-01  1.66524381E+00 -2.26081208E-02 -3.30737299E-01  1.96857442E-02
 -1.25840408E-02 -2.06477271E-04  6.05640926E-05 -3.56586393E-01 -6.75474744E-01
 -8.47876714E-04  2.29944055E-04 -1.50140647E+00 -5.97893876E-03 -5.98204948E-03
  1.94991476E-02 -6.91450632E-07  8.27030869E-06 -2.97965425E-06  9.27769673E-02
  2.38877652E+00 -4.60050379E-02 -5.03182126E-01 -4.60083007E-02 -5.03113687E-01
 -4.59761593E-02 -5.02464869E-01 -5.74932049E-03 -3.74233292E-02 -1.62702253E-05
  2.80312008E-05 -7.07981800E-01  2.83876833E-01  2.03537140E-04 -9.56470794E-05
  1.51020242E+00  4.85078639E-02  4.84745663E-02 -8.22282922E-02  5.40624278E-06
 -6.45764785E-05  2.32993243E-05 -5.03308605E-01 -3.86882343E-01  1.55874532E-01
  3.64829967E-02  1.55938775E-01  3.64725194E-02  1.56086061E-01  3.64042724E-02
  1.58342408E-06  1.06929734E-05 -4.15896565E-01 -6.39646842E-01  2.95727004E-06
 -4.37562590E-05  7.88927018E-01  1.21336057E+00  4.06081981E-05 -3.58953120E-02
  3.59123842E-02 -1.32814898E-05  7.25911357E-02  3.23198566E-02  4.96621735E-02
 -3.05745436E-05 -4.75577397E-05 -2.20734146E-01 -9.66406863E-02  4.68960634E-01
  2.05424016E-01 -2.48180518E-01 -1.08709077E-01  8.12524376E-07  1.38362811E-05
 -6.39672253E-01  4.15886964E-01  7.66147838E-05  6.47637165E-06  1.21338699E+00
 -7.88884525E-01 -2.39897820E-06 -6.28107005E-02  6.28810834E-02 -5.60363580E-05
 -4.14918641E-02  4.96932715E-02 -3.22787999E-02 -1.24901482E-04 -1.95332799E-04
  4.14090803E-01  1.81389443E-01 -1.58035500E-02 -6.86640379E-03 -3.98137699E-01
 -1.74370596E-01  2.04860369E-05 -2.23193571E-04 -8.11083773E-01  2.61693060E-01
  6.19814834E-04  3.25322119E-04  1.17019661E+00 -3.77567098E-01 -8.98406135E-04
  1.38366324E-01 -1.38371475E-01 -7.73238419E-06  4.16415151E-02 -1.16647739E-01
  3.75881412E-02 -1.91282052E-04  5.48754790E-04 -6.08524770E-01  1.17419549E+00
 -1.90682597E-01  3.67992536E-01  7.99945896E-01 -1.54328301E+00 -1.29721294E-05
  1.49525579E-04  2.61697033E-01  8.11101296E-01 -1.22991462E-04 -2.29433251E-04
 -3.77565995E-01 -1.17024853E+00  1.80671063E-04 -3.60334521E-02  3.60035126E-02
  4.22357465E-05  1.59833227E-01  3.76561788E-02  1.16563006E-01  5.94490119E-05
 -2.04362883E-04 -5.72066578E-01  1.10371262E+00  8.13035554E-01 -1.56878573E+00
 -2.41382625E-01  4.65646641E-01  5.76279909E-02 -5.65312531E-01  6.51981246E-04
 -2.09752409E-05  7.03376892E-01  8.08815025E-01 -9.54475668E-04  3.93131088E-05
 -1.03729481E+00  6.59109987E-02  6.60422448E-02 -1.81983431E-01  2.15154839E-05
 -2.37004012E-05  4.26520167E-05 -3.21125100E-01  1.09231268E+00  6.13045308E-01
 -8.33043565E-01  6.13170145E-01 -8.33288958E-01  6.12499548E-01 -8.31985169E-01
  8.54644183E-02 -5.67279610E-01 -2.30078172E-04  1.05777656E-04 -5.96383395E-01
  5.90640223E-01  2.82732734E-04 -1.28674375E-04  7.57684980E-01 -9.68638001E-02
 -9.69002113E-02  1.35837885E-01  8.98706990E-06  1.03931110E-04 -3.59409749E-05
  1.08349512E+00 -1.38490494E+00  3.73095004E-01 -2.05991185E-02  3.73138922E-01
 -2.06647278E-02  3.73188861E-01 -2.07238324E-02  1.00419623E-01  2.08659311E+00
  2.74758884E-05 -8.83043328E-06  3.02820196E-02 -5.73534851E+00 -1.26031443E-04
  5.49370116E-05 -1.94285394E-01  1.22896005E-01  1.22841101E-01  8.43809259E-02
  4.57416415E-06  9.26869721E-06 -5.90794028E-06  1.85585945E-01  1.46700576E+00
  3.10912290E-01  9.92879611E-01  3.10897447E-01  9.92944043E-01  3.10937298E-01
  9.92888750E-01  1.02097924E-05  9.94074821E-05  6.54300510E-03 -3.14373653E-04
 -7.01123300E-06 -3.28700526E-04  7.27490425E-04 -3.51674965E-05 -4.98381758E-06
 -4.95874414E-01  4.95382624E-01  4.94509478E-04  5.33159806E-03 -8.19048549E-01
  3.96034288E-02  4.96820072E-05  6.75115716E-05  4.72335437E-03 -2.27655738E-03
  4.27764052E-03 -2.05489022E-03 -8.83668644E-03  4.47804623E-03 -3.06757374E-06
 -2.52691464E-05  3.16598537E-04  6.54588564E-03  3.53388376E-07  8.87965252E-05
  3.26296824E-05  7.33971298E-04  1.90265151E-07  4.49342563E-03 -4.33418328E-03
 -1.62348760E-04  5.71799222E-01 -3.94600057E-02 -8.19408542E-01 -1.11875452E-05
 -1.85112017E-05 -7.60238830E-03  3.76272685E-03  7.82977176E-03 -3.91875527E-03
 -2.71424257E-04  1.16688533E-04 -3.12249019E-06  3.34664983E-05 -1.50640759E-01
  1.95526604E-02  4.38639900E-05 -1.39515996E-05 -4.28089837E-01  5.55650904E-02
  8.21791043E-05 -7.99464425E-01  7.99853503E-01 -4.06729469E-04 -6.64953692E-02
  6.41576769E-01 -8.31103839E-02  9.29705439E-06  5.21470533E-05 -4.61226488E-01
  5.18353435E-02 -3.13129038E-01  3.51779162E-02  7.74295324E-01 -8.70377870E-02
 -1.76031631E-06  9.28886489E-06 -1.95612513E-02 -1.50660502E-01 -3.59384225E-06
  2.54782917E-05 -5.55799157E-02 -4.28078578E-01 -1.02576274E-05 -5.74761218E-02
  5.73251093E-02  1.50488177E-04  9.23754890E-01  8.33893088E-02  6.41025961E-01
 -5.23920910E-05 -4.96327707E-06  6.27846268E-01 -7.05828367E-02 -7.13351691E-01
  8.01827017E-02  8.55143973E-02 -9.60896948E-03 -9.99115827E-03  7.87038300E-02
  9.62519964E-05 -2.52655010E-05  2.81515333E-01  1.39904477E-01  1.87235259E-04
 -4.46267817E-05  4.43529199E-01 -5.96336709E-01 -5.96332968E-01  1.17734516E+00
 -4.77703621E-05  6.99888308E-04 -3.00293701E-04 -1.03088705E+00  8.01373302E-02
  2.57681027E-01 -5.35086584E-02  2.57757908E-01 -5.35315782E-02  2.57732180E-01
 -5.35804619E-02  4.90746463E-01 -2.92213496E+00  1.01521545E-05 -6.53785529E-06
  3.03613537E-02 -2.55198512E+00 -2.71251414E-05  9.45548125E-06 -3.37035595E-02
  1.87203452E+00  1.87205202E+00  1.92361472E+00  1.89221662E-06  2.54375716E-05
 -6.61106253E-06 -1.99052052E-01  6.08157957E-01 -1.21178463E-01  4.92521790E-01
 -1.21186327E-01  4.92536366E-01 -1.21159591E-01  4.92514632E-01
Alpha Orbital Energies                     R   N=          23
 -1.01564207E+01 -6.99378792E-01 -4.03944842E-01 -3.88114856E-01 -3.88110801E-01
  1.22150673E-01  1.76438799E-01  1.76450043E-01  2.00328052E-01  5.07797511E-01
  5.35090654E-01  5.35095632E-01  8.98260951E-01  8.98277863E-01  9.27011674E-01
  1.02514180E+00  1.10824571E+00  1.65063650E+00  1.65064697E+00  2.24198689E+00
  2.24201964E+00  2.35498051E+00  4.19816475E+00
Total SCF Density                          R   N=         276
  2.05083416E+00 -5.24378714E-02  2.96191400E-01 -1.17858860E-06  2.16263025E-06
  3.97181176E-01  1.29250550E-06 -4.00420180E-06  6.78494447E-07  3.97192087E-01
 -5.83199497E-03  1.35101953E-02  1.45372977E-05 -2.39487756E-06  4.26871567E-01
 -1.69664456E-01  2.64574481E-01 -1.95371744E-06  5.37201721E-06 -1.05195837E-02
  2.44940856E-01  1.22284952E-06 -2.90220873E-06  1.93193852E-01  1.04396718E-06
 -1.08755814E-05 -3.59829996E-06  9.39718873E-02 -6.60583135E-07  7.76143206E-07
 -1.27074796E-07  1.93193573E-01  2.28522507E-06  4.91674347E-06  2.85272671E-07
  9.39690338E-02  3.40271686E-04 -8.59102835E-04 -1.70121432E-06  4.31039888E-06
  1.86801979E-01 -1.07704650E-02 -8.60277080E-06  3.54585647E-06  8.19022824E-02
 -1.91920395E-02 -5.17081001E-04  1.60843050E-02 -9.22083100E-04 -1.36120565E-02
  1.42651801E-03  7.82416810E-03 -4.48621576E-04 -5.97120504E-03  1.27184043E-03
 -1.91915295E-02 -5.17443219E-04 -1.60972902E-02  9.27794717E-04 -1.36015293E-02
  1.42590118E-03 -7.82935627E-03  4.51193055E-04 -5.96590727E-03 -3.60627135E-05
  1.27216356E-03 -1.99032905E-02  1.77944217E-03  1.31962994E-05 -5.88084538E-06
  2.56613412E-02  1.40177795E-03  5.31985031E-06 -2.63708797E-06  1.11913344E-02
 -6.33942073E-04 -6.34340628E-04  1.72979985E-03 -4.24170541E-08  2.14299141E-07
 -1.06547100E-03 -1.85862733E-02 -1.88216930E-06 -1.13511165E-07 -5.18291639E-04
 -9.04033135E-03 -1.05492628E-06  6.42063505E-08 -1.72143465E-07  1.22513980E-07
  8.72587253E-04 -1.18434584E-06  2.93460465E-06 -1.13327672E-02 -1.75999005E-06
  1.76804860E-05  1.81322564E-06 -5.51239936E-03 -8.42846118E-07  7.91120078E-06
 -4.59501900E-04  4.58727675E-04  7.24368295E-07  3.04824443E-05  3.23358547E-04
  9.91373371E-08 -2.99294335E-07 -1.65449160E-06 -1.13228957E-02 -7.98805030E-06
 -9.64021255E-08 -8.24777239E-07 -5.50743779E-03 -3.64472156E-06  2.64769077E-05
 -2.61259484E-05 -3.17206810E-07  5.29849911E-04  9.64855620E-08  3.22785964E-04
 -6.13438921E-02  1.17277831E-01  9.24036716E-05 -3.56183014E-05  2.76179866E-01
  9.27208792E-02  3.20744365E-05 -1.41184659E-05  1.18341478E-01 -8.47032355E-03
 -8.47060294E-03  1.73220078E-02  1.88470081E-07  9.97057835E-06 -4.25539535E-06
  2.19236563E-01 -8.50598513E-03  2.94004006E-02  5.71452991E-05 -2.88222454E-05
  2.10079338E-01  1.52982203E-02  1.87026630E-05 -1.21194888E-05  9.14099647E-02
 -6.68819798E-03 -6.68723825E-03  1.27186523E-02  2.40448603E-07  7.46181622E-06
 -3.15556255E-06  1.44297937E-01  1.05139280E-01 -5.30132386E-02  1.00391043E-01
 -1.19040824E-01  2.15563175E-01 -9.04909949E-02  9.68879364E-02 -5.78999408E-02
  1.04849903E-01 -4.19880777E-02 -2.12371678E-03  8.52287518E-03 -4.76711523E-03
 -9.76732384E-03  3.39266614E-03 -6.14299339E-03 -2.00199240E-02 -3.65923933E-02
  2.08533479E-01 -1.01717836E-02  2.92312746E-02 -1.00320673E-01  1.81668979E-01
 -7.90788413E-02  3.07171111E-02 -4.87939350E-02  8.83632493E-02 -3.53322319E-02
 -1.91836972E-03  7.05400985E-03 -4.60215852E-03 -8.23156520E-03  2.85856237E-03
 -5.17701366E-03 -3.94469325E-02 -3.64971288E-02  1.56603691E-01  1.26500413E-01
 -5.30141810E-02  1.00394085E-01 -1.27192225E-01 -2.10835978E-01 -9.05434641E-02
  9.68840386E-02 -6.18656477E-02 -1.02549929E-01 -4.20166376E-02 -1.46215242E-03
  7.85893971E-03 -4.76435962E-03  1.02075343E-02  3.62711632E-03  6.01255311E-03
 -2.00188047E-02 -3.65895247E-02 -2.04262184E-02 -3.63551948E-02  2.08535281E-01
 -1.01719564E-02  2.92329638E-02 -1.07186588E-01 -1.77678881E-01 -7.91236068E-02
  3.07130442E-02 -5.21342453E-02 -8.64229468E-02 -3.53565203E-02 -1.36067416E-03
  6.49434251E-03 -4.59987619E-03  8.60223541E-03  3.05604027E-03  5.06707240E-03
 -3.94466656E-02 -3.64950463E-02 -3.63533734E-02 -3.61165966E-02  1.56600725E-01
  1.26494474E-01 -5.30102824E-02  1.00386278E-01  2.46147548E-01 -4.69436016E-03
 -9.06308012E-02  9.68831939E-02  1.19731825E-01 -2.28341832E-03 -4.20595476E-02
  1.31812584E-02 -6.78739117E-03 -4.76104014E-03 -4.40174492E-04 -7.02629197E-03
  1.34465774E-04 -2.00167066E-02 -3.66002192E-02 -2.04254718E-02 -3.63504825E-02
 -2.04253750E-02 -3.63483128E-02  2.08529758E-01 -1.01722584E-02  2.92318230E-02
  2.07447605E-01 -3.95755770E-03 -7.92046335E-02  3.07177591E-02  1.00908046E-01
 -1.92554574E-03 -3.53960634E-02  1.09804165E-02 -5.84868814E-03 -4.59748077E-03
 -3.70915024E-04 -5.92217973E-03  1.13443422E-04 -3.94475666E-02 -3.65072733E-02
 -3.63522276E-02 -3.61132339E-02 -3.63505348E-02 -3.61098782E-02  1.56608585E-01
  1.26509556E-01
Pure Switching                             I                1
Dipole_Data                                R   N=           3
  1.20797831E-05 -3.22536310E-05  5.85239253E-02
Quadrupole_Data                            R   N=           6
 -8.16231789E+00  1.55267532E-05 -8.16235922E+00  1.24263194E-04 -2.72493124E-05
 -8.21799936E+00
Octapole_Data                              R   N=          10
  5.38266303E-01 -3.08998183E-02 -5.38694590E-01  3.09505337E-02 -2.57620877E-01
 -5.74901236E-05 -2.57293660E-01  4.45828139E-04 -1.93528883E-04  8.86412591E-01
Hexadecapole_Data                          R   N=          15
 -1.49993182E+01  9.47514351E-05 -4.99936959E+00 -9.67517818E-05 -1.49984289E+01
 -3.05966566E-01  1.75716639E-02  3.06031002E-01 -1.75441155E-02 -4.96155799E+00
  7.24818151E-05 -4.96182889E+00  4.53790296E-04 -1.23469565E-04 -1.36301297E+01
