Jobname.Temp
SP        R                             6-31G(d)            
Number of atoms                            I                5
Charge                                     I                0
Multiplicity                               I                1
Number of electrons                        I               10
Number of alpha electrons                  I                5
Number of beta electrons                   I                5
Atomic numbers                             I   N=           5
           6           1           1           1           1
Current cartesian coordinates              R   N=          15
 -6.54321779E-06 -4.06084419E-06  9.43516128E-03  1.37101707E-03 -5.24907348E-04
  1.98101225E+00 -9.42160141E-01  1.70529886E+00 -6.78185380E-01 -1.00630416E+00
 -1.66790056E+00 -6.78982147E-01  1.94713255E+00 -3.68490283E-02 -6.80455693E-01
Nuclear charges                            R   N=           5
  6.00000000E+00  1.00000000E+00  1.00000000E+00  1.00000000E+00  1.00000000E+00
Number of basis functions                  I               23
Number of contracted shells                I               12
Number of primitive shells                 I               27
Highest angular momentum                   I                2
Largest degree of contraction              I                6
Shell types                                I   N=          12
           0          -1          -1           2           0           0
           0           0           0           0           0           0
Number of primitives per shell             I   N=          12
           6           3           1           1           3           1
           3           1           3           1           3           1
Shell to atom map                          I   N=          12
           1           1           1           1           2           2
           3           3           4           4           5           5
Primitive exponents                        R   N=          27
  3.04752490E+03  4.57369510E+02  1.03948690E+02  2.92101550E+01  9.28666300E+00
  3.16392700E+00  7.86827240E+00  1.88128850E+00  5.44249300E-01  1.68714400E-01
  8.00000000E-01  1.87311370E+01  2.82539370E+00  6.40121700E-01  1.61277800E-01
  1.87311370E+01  2.82539370E+00  6.40121700E-01  1.61277800E-01  1.87311370E+01
  2.82539370E+00  6.40121700E-01  1.61277800E-01  1.87311370E+01  2.82539370E+00
  6.40121700E-01  1.61277800E-01
Contraction coefficients                   R   N=          27
  1.83470016E-03  1.40373012E-02  6.88426061E-02  2.32184421E-01  4.67941342E-01
  3.62312032E-01 -1.19332409E-01 -1.60854212E-01  1.14345648E+00  1.00000000E+00
  1.00000000E+00  3.34945995E-02  2.34726947E-01  8.13757318E-01  1.00000000E+00
  3.34945995E-02  2.34726947E-01  8.13757318E-01  1.00000000E+00  3.34945995E-02
  2.34726947E-01  8.13757318E-01  1.00000000E+00  3.34945995E-02  2.34726947E-01
  8.13757318E-01  1.00000000E+00
P(S=P) Contraction coefficients            R   N=          27
  0.00000000E+00  0.00000000E+00  0.00000000E+00  0.00000000E+00  0.00000000E+00
  0.00000000E+00  6.89990956E-02  3.16423980E-01  7.44308252E-01  1.00000000E+00
  0.00000000E+00  0.00000000E+00  0.00000000E+00  0.00000000E+00  0.00000000E+00
  0.00000000E+00  0.00000000E+00  0.00000000E+00  0.00000000E+00  0.00000000E+00
  0.00000000E+00  0.00000000E+00  0.00000000E+00  0.00000000E+00  0.00000000E+00
  0.00000000E+00  0.00000000E+00
Coordinates of each shell                  R   N=          36
 -6.54321779E-06 -4.06084419E-06  9.43516128E-03 -6.54321779E-06 -4.06084419E-06
  9.43516128E-03 -6.54321779E-06 -4.06084419E-06  9.43516128E-03 -6.54321779E-06
 -4.06084419E-06  9.43516128E-03  1.37101707E-03 -5.24907348E-04  1.98101225E+00
  1.37101707E-03 -5.24907348E-04  1.98101225E+00 -9.42160141E-01  1.70529886E+00
 -6.78185380E-01 -9.42160141E-01  1.70529886E+00 -6.78185380E-01 -1.00630416E+00
 -1.66790056E+00 -6.78982147E-01 -1.00630416E+00 -1.66790056E+00 -6.78982147E-01
  1.94713255E+00 -3.68490283E-02 -6.80455693E-01  1.94713255E+00 -3.68490283E-02
 -6.80455693E-01
Overlap Matrix                             R   N=         276
  1.00000000E+00  2.19058872E-01  1.00000000E+00  2.55980146E-22  6.99749034E-22
  1.00000000E+00 -1.49142770E-22  1.15472629E-21  1.28628231E-42  1.00000000E+00
 -9.98847529E-19  9.53459240E-20 -1.77469117E-39 -4.31091102E-40  1.00000000E+00
  1.84261053E-01  8.12273068E-01 -2.99603121E-22  2.99603121E-22  0.00000000E+00
  1.00000000E+00  1.17481308E-22  4.56097568E-23  5.69754058E-01 -2.08474388E-43
  0.00000000E+00  0.00000000E+00  1.00000000E+00  4.43591648E-23 -4.56097568E-23
 -2.08474388E-43  5.69754058E-01  0.00000000E+00  0.00000000E+00  0.00000000E+00
  1.00000000E+00  0.00000000E+00  0.00000000E+00  0.00000000E+00  0.00000000E+00
  5.69754058E-01  0.00000000E+00  0.00000000E+00  0.00000000E+00  1.00000000E+00
  7.91027073E-02  7.10235064E-01  1.20020741E-21  0.00000000E+00 -3.15168893E-20
  6.29936196E-01  1.31499528E-21  0.00000000E+00  0.00000000E+00  1.00000000E+00
  7.91027073E-02  7.10235064E-01  4.00069137E-22  0.00000000E+00 -3.15168893E-20
  6.29936196E-01  4.38331760E-22  0.00000000E+00  0.00000000E+00  3.33333333E-01
  1.00000000E+00  7.91027073E-02  7.10235064E-01  4.00069137E-22  0.00000000E+00
 -9.45506678E-20  6.29936196E-01  4.38331760E-22  0.00000000E+00  0.00000000E+00
  3.33333333E-01  3.33333333E-01  1.00000000E+00  5.99020010E-43  0.00000000E+00
  0.00000000E+00  6.92940071E-22  0.00000000E+00  0.00000000E+00  0.00000000E+00
  7.59212878E-22  0.00000000E+00  0.00000000E+00  0.00000000E+00  0.00000000E+00
  1.00000000E+00 -1.22679298E-39  0.00000000E+00 -5.45888535E-20  0.00000000E+00
  6.92940071E-22  0.00000000E+00  0.00000000E+00  0.00000000E+00  7.59212878E-22
  0.00000000E+00  0.00000000E+00  0.00000000E+00  0.00000000E+00  1.00000000E+00
 -1.42642221E-39  0.00000000E+00  0.00000000E+00 -5.45888535E-20  0.00000000E+00
  0.00000000E+00  0.00000000E+00  0.00000000E+00  0.00000000E+00  0.00000000E+00
  0.00000000E+00  0.00000000E+00  0.00000000E+00  0.00000000E+00  1.00000000E+00
  4.00430904E-02  3.04013677E-01  2.78780578E-04 -1.05405107E-04  3.98993355E-01
  3.95754017E-01  3.61584625E-04 -1.36712774E-04  5.17503277E-01  1.33836770E-01
  1.33836620E-01  4.92307173E-01 -1.14605902E-07  4.33821422E-04 -1.64025032E-04
  1.00000000E+00  9.74541864E-02  4.97261895E-01  1.85963140E-04 -7.03114428E-05
  2.66152175E-01  7.25497380E-01  4.01257765E-04 -1.51712928E-04  5.74283845E-01
  3.68465919E-01  3.68465887E-01  4.45975405E-01 -2.47804129E-08  9.38020973E-05
 -3.54659574E-05  6.58292049E-01  1.00000000E+00  3.22670405E-02  2.71611275E-01
 -1.67475255E-01  3.03131083E-01 -1.22229991E-01  3.75719756E-01 -2.34738117E-01
  4.24877215E-01 -1.71321058E-01  1.86588552E-01  3.46073692E-01  1.53842912E-01
 -2.19667467E-01  8.85753851E-02 -1.60321908E-01  2.13218956E-02  1.58068664E-01
  1.00000000E+00  9.18331960E-02  4.74645936E-01 -1.21158710E-01  2.19297895E-01
 -8.84263646E-02  7.03035538E-01 -2.65935293E-01  4.81344265E-01 -1.94089977E-01
  3.66894168E-01  4.05170729E-01  3.59035188E-01 -5.27203677E-02  2.12581633E-02
 -3.84773861E-02  1.58068664E-01  4.16170947E-01  6.58292049E-01  1.00000000E+00
  3.22688893E-02  2.71619422E-01 -1.78883500E-01 -2.96491968E-01 -1.22375821E-01
  3.75724947E-01 -2.50723113E-01 -4.15563143E-01 -1.71521951E-01  1.96461823E-01
  3.36126771E-01  1.53935286E-01  2.29485846E-01  9.47193240E-02  1.56993344E-01
  2.13239760E-02  1.58074807E-01  1.80275534E-02  1.47834879E-01  1.00000000E+00
  9.18346470E-02  4.74651812E-01 -1.29409149E-01 -2.14490287E-01 -8.85299698E-02
  7.03041419E-01 -2.84043166E-01 -4.70789746E-01 -1.94316500E-01  3.69266970E-01
  4.02785746E-01  3.59060848E-01  5.50752706E-02  2.27320878E-02  3.76774910E-02
  1.58074807E-01  4.16180907E-01  1.47834879E-01  3.99365003E-01  6.58292049E-01
  1.00000000E+00  3.22647783E-02  2.71601305E-01  3.46104846E-01 -6.54920948E-03
 -1.22628408E-01  3.75713404E-01  4.85122609E-01 -9.17978939E-03 -1.71883792E-01
  4.15778047E-01  1.16621561E-01  1.54082639E-01 -9.80834619E-03 -1.83652987E-01
  3.47519516E-03  2.13267945E-02  1.58083129E-01  1.80245548E-02  1.47825061E-01
  1.80244188E-02  1.47824615E-01  1.00000000E+00  9.18314205E-02  4.74638745E-01
  2.50393496E-01 -4.73810025E-03 -8.87169199E-02  7.03028343E-01  5.49600093E-01
 -1.03998721E-02 -1.94728810E-01  4.21897676E-01  3.50097462E-01  3.59088453E-01
 -2.35409022E-03 -4.40783483E-02  8.34077708E-04  1.58083129E-01  4.16194399E-01
  1.47825061E-01  3.99348667E-01  1.47824615E-01  3.99347926E-01  6.58292049E-01
  1.00000000E+00
Core Hamiltonian Matrix                    R   N=         276
 -1.99044352E+01 -4.08963015E+00 -6.74169952E+00 -1.63745990E-06 -1.09327406E-05
 -6.00937534E+00  1.02965747E-06  6.54595587E-06 -2.27548384E-06 -6.00937513E+00
 -2.18120880E-03 -1.36794183E-02 -1.80915257E-05  4.27353248E-06 -6.02163764E+00
 -3.52394858E+00 -5.39446668E+00 -9.31673082E-06  4.89179700E-06 -9.99963012E-03
 -5.45535700E+00 -2.75072164E-07 -6.40406688E-06 -3.07735535E+00 -1.50924905E-06
 -1.16283765E-05 -8.11245679E-06 -3.76212188E+00  1.72968110E-07  3.20178031E-06
 -1.50924905E-06 -3.07735361E+00  2.69712498E-06  1.77332472E-06 -1.28894002E-06
 -3.76211504E+00 -3.66407805E-04 -6.47433052E-03 -1.16283765E-05  2.69712498E-06
 -3.08319786E+00 -3.03177075E-03 -9.51263576E-06  2.15490124E-06 -3.76062565E+00
 -1.50382960E+00 -4.42840739E+00 -5.08799045E-02  2.90192125E-03  3.23313094E-02
 -3.78111628E+00 -4.91248360E-02  2.80097268E-03  3.29333614E-02 -4.78266246E+00
 -1.50382962E+00 -4.42840745E+00  5.09625820E-02 -2.92946029E-03  3.22658831E-02
 -3.78111538E+00  4.92078756E-02 -2.83150629E-03  3.28696746E-02 -2.30536786E+00
 -4.78270490E+00 -1.50426660E+00 -4.43957452E+00 -1.07923516E-04  4.24570436E-05
 -9.56242901E-02 -3.79006070E+00 -9.99647584E-05  3.88682772E-05 -8.25285950E-02
 -2.29577230E+00 -2.29572979E+00 -4.82102289E+00 -1.23269648E-07 -3.48579489E-06
  5.02627504E-03  8.82697813E-02  2.01658464E-05 -3.24695587E-06  4.85142699E-03
  8.52305407E-02  1.92253762E-05 -1.44972573E-05  1.87431661E-05 -1.33664020E-05
 -3.71610357E+00 -1.00528420E-06 -2.77840264E-05  5.59994706E-02  2.01658464E-05
 -1.86929013E-04 -2.53725863E-05  5.70422552E-02  1.92253762E-05 -1.73144041E-04
  2.84719233E-02 -2.84485973E-02 -9.57102285E-05 -2.82093854E-03 -3.68731691E+00
  2.40944164E-07  6.57220790E-06  2.01658464E-05  5.58861489E-02  7.35377566E-05
  5.93297263E-06  1.92253762E-05  5.69319465E-02  6.73218310E-05 -1.62866962E-03
  1.61303331E-03  3.27151362E-05 -4.92744160E-02 -2.31512874E-05 -3.68718936E+00
 -7.69904109E-01 -1.97179249E+00 -1.58815466E-03  6.00330852E-04 -2.27052077E+00
 -2.15085253E+00 -1.63277416E-03  6.17065731E-04 -2.33423552E+00 -9.31033938E-01
 -9.31032415E-01 -2.64321500E+00  2.63051329E-07 -2.07463948E-03  7.84038739E-04
 -4.20744543E+00 -1.86547612E+00 -3.25452411E+00 -1.02070016E-03  3.86014414E-04
 -1.45504472E+00 -3.65931171E+00 -1.46106640E-03  5.50978795E-04 -2.08022593E+00
 -2.20953174E+00 -2.20952889E+00 -2.63013571E+00 -1.59009557E-06 -5.15700432E-04
  1.93501078E-04 -3.06254223E+00 -3.99991190E+00 -6.20661672E-01 -1.74223175E+00
  9.44132923E-01 -1.70888616E+00  6.88216324E-01 -1.99155600E+00  1.04096575E+00
 -1.88415388E+00  7.59297944E-01 -1.14448058E+00 -1.90597063E+00 -9.88198917E-01
  1.04884011E+00 -4.22496726E-01  7.64719444E-01 -1.72792389E-01 -8.86031152E-01
 -4.05591887E+00 -1.75780831E+00 -3.09863200E+00  6.58380983E-01 -1.19167732E+00
  4.76098921E-01 -3.52276708E+00  9.61223426E-01 -1.73982367E+00  6.99966435E-01
 -2.18745611E+00 -2.38895852E+00 -2.14928170E+00  2.77537011E-01 -1.11343877E-01
  2.01516285E-01 -9.09533220E-01 -2.04480679E+00 -2.96908427E+00 -3.91088914E+00
 -6.20697159E-01 -1.74228898E+00  1.00844890E+00  1.67146314E+00  6.89039608E-01
 -1.99159642E+00  1.11185770E+00  1.84285836E+00  7.60191754E-01 -1.19163165E+00
 -1.85848739E+00 -9.88648978E-01 -1.09572045E+00 -4.51803068E-01 -7.48842585E-01
 -1.72807592E-01 -8.86068018E-01 -1.46102341E-01 -8.30964307E-01 -4.05595694E+00
 -1.75783610E+00 -3.09867258E+00  7.03215503E-01  1.16555766E+00  4.76661379E-01
 -3.52280285E+00  1.02667586E+00  1.70167671E+00  7.00784183E-01 -2.19995112E+00
 -2.37640914E+00 -2.14942052E+00 -2.89938918E-01 -1.19064567E-01 -1.97324388E-01
 -9.09564763E-01 -2.04485133E+00 -8.30958664E-01 -1.95454645E+00 -2.96910795E+00
 -3.91091233E+00 -6.20618378E-01 -1.74216416E+00 -1.95114729E+00  3.69210112E-02
  6.90459634E-01 -1.99150967E+00 -2.15131024E+00  4.07084212E-02  7.61788753E-01
 -2.23878004E+00 -8.10400240E-01 -9.89331916E-01  4.68319470E-02  8.76008024E-01
 -1.65760982E-02 -1.72823218E-01 -8.86090994E-01 -1.46079926E-01 -8.30902624E-01
 -1.46080185E-01 -8.30902267E-01 -4.05587983E+00 -1.75777441E+00 -3.09858519E+00
 -1.36065983E+00  2.57488675E-02  4.77673871E-01 -3.52272778E+00 -1.98654245E+00
  3.75906568E-02  7.02269869E-01 -2.47701292E+00 -2.09902838E+00 -2.14955929E+00
  1.23922497E-02  2.30839605E-01 -4.36574294E-03 -9.09600551E-01 -2.04488575E+00
 -8.30908624E-01 -1.95447180E+00 -8.30913909E-01 -1.95447650E+00 -2.96906024E+00
 -3.91086770E+00
Number of independent functions            I               23
Alpha MO coefficients                      R   N=         529
 -9.92774653E-01 -5.00283127E-02  4.35413949E-08  1.85951342E-08 -6.74334200E-05
  1.49306713E-02  1.06972868E-07 -4.60132695E-08  1.12903272E-04  9.42703822E-03
  9.42688862E-03  9.33758105E-03 -1.98429894E-08 -1.46692032E-07  2.63851408E-08
  2.07008746E-04 -2.86318841E-03  1.44547494E-04 -2.60199317E-03  1.44569095E-04
 -2.60205441E-03  1.44360538E-04 -2.60186206E-03 -1.98946047E-01  3.80709423E-01
  8.86248556E-06 -6.18430090E-06  1.25073346E-02  3.55664243E-01 -1.38870117E-06
  1.56459984E-07  1.54777379E-03  9.94346903E-04  9.94041488E-04  2.79366439E-03
  2.84344614E-07  3.77906730E-06 -4.76613716E-07  1.46693259E-01  4.03388058E-02
  1.32271893E-01  3.75735628E-02  1.32275816E-01  3.75754621E-02  1.32269338E-01
  3.75776022E-02  2.36521874E-03 -3.44800948E-03  7.96235363E-04 -1.63148923E-04
  4.53762821E-01 -1.51119416E-02  3.66168496E-04 -7.58418063E-05  2.08721876E-01
 -1.36924558E-02 -1.37319458E-02  2.66396323E-02  1.07320202E-06  1.47811622E-05
 -1.13104276E-05  2.92264202E-01  2.36430387E-01 -1.01848008E-01 -8.54192248E-02
 -1.01807215E-01 -8.53857451E-02 -1.01363003E-01 -8.50196718E-02  1.37459345E-06
 -1.53879039E-06 -3.69617371E-01 -2.49338556E-01  5.66923889E-04 -1.44633126E-05
 -1.78948628E-01 -1.20712565E-01  2.66291878E-04 -1.44056505E-02  1.43898212E-02
  1.46759905E-05  1.26603486E-02  1.14496374E-02  7.71069679E-03  2.48699933E-04
  2.13217801E-04 -2.46280020E-02 -2.07743404E-02  2.50668241E-01  2.11411711E-01
 -2.26306092E-01 -1.90876592E-01  3.70578149E-07 -1.18834188E-06 -2.49333686E-01
  3.69622569E-01  5.79893372E-04 -4.50872945E-06 -1.20712991E-01  1.78947138E-01
  2.77184913E-04 -1.09642519E-02  1.09573089E-02  5.75044296E-06 -1.66430420E-02
  7.71846433E-03 -1.14230356E-02  2.05518457E-04  1.71927623E-04  2.75309400E-01
  2.32201639E-01 -1.16513389E-01 -9.82698774E-02 -1.59012817E-01 -1.34121095E-01
  1.61604356E-01 -1.91426642E-01 -7.02485613E-06 -1.85852771E-05  3.69472257E-02
 -2.65694851E+00 -6.07650134E-05 -4.64937833E-05  8.62242083E-02  1.38391005E-02
  1.38377384E-02  1.08157768E-02 -3.67811281E-07 -4.00802181E-06  3.64377443E-07
  9.31823677E-04  9.14621014E-01  2.10310416E-02  1.03372545E+00  2.10249398E-02
  1.03367707E+00  2.10430698E-02  1.03386998E+00  1.88443750E-05 -1.47566448E-05
  3.74431986E-01 -8.38075783E-02 -4.55942504E-04 -4.32754646E-04  1.32655393E+00
 -2.96885288E-01 -1.67881527E-03 -1.36081328E-02  1.36185579E-02 -1.82490015E-06
 -2.59424414E-03  1.23437434E-02 -2.75540983E-03  7.77539826E-05  1.17113316E-03
  7.96745331E-02  1.16908787E+00  3.80645673E-02  5.58684640E-01 -1.17814427E-01
 -1.72836706E+00  6.69594227E-06 -8.66027737E-06  8.38050188E-02  3.74444786E-01
  1.73352923E-05 -1.54542423E-04  2.96915787E-01  1.32652840E+00  5.88681288E-05
 -2.23859274E-03  2.23627500E-03  3.45285964E-06  1.57370717E-02  2.76677199E-03
  1.23279778E-02  6.55116277E-06  1.72717712E-04 -9.00109183E-02 -1.32040681E+00
  1.14023158E-01  1.67288260E+00 -2.40237400E-02 -3.52433069E-01 -1.19231642E-02
  8.84663085E-03  4.58439433E-04 -1.20386371E-04  3.71350610E-01  3.54659543E-01
  1.72738442E-03 -4.41097036E-04  1.42896230E+00  7.90157926E-03  7.91390323E-03
 -1.95614546E-02  5.28828192E-07 -1.66422224E-05  7.07819699E-06 -1.11155038E-01
 -2.12892693E+00  4.40654950E-02  5.52230890E-01  4.40641284E-02  5.52100867E-01
  4.39791749E-02  5.50657137E-01 -3.20836432E-03 -1.93155494E-02 -3.88379212E-05
  7.49301428E-05 -7.35360912E-01  1.36075710E-01  2.41507908E-04 -1.81278673E-04
  1.47552121E+00  4.97971972E-02  4.97199488E-02 -9.29229485E-02  9.75288913E-06
 -1.43785190E-04  5.04915077E-05 -5.01169316E-01 -2.93255105E-01  1.60152227E-01
  5.42413917E-02  1.60267245E-01  5.42565369E-02  1.60605602E-01  5.42783665E-02
  1.65448746E-06  1.28841118E-05 -4.02349075E-01 -6.49220907E-01 -2.43945860E-05
 -4.92817971E-05  7.63818715E-01  1.23247235E+00  9.38885694E-05 -3.44257404E-02
  3.44597015E-02 -2.92372919E-05  7.32774133E-02  3.11862223E-02  5.02180592E-02
 -7.83304926E-05 -6.88133999E-05 -2.28907103E-01 -1.02092207E-01  4.67773436E-01
  2.08731099E-01 -2.38769066E-01 -1.06540947E-01 -8.11786570E-07 -1.62725617E-05
  6.49247137E-01 -4.02340457E-01 -1.22769083E-04  6.59386453E-06 -1.23250014E+00
  7.63775471E-01  8.89228228E-05  6.33483964E-02 -6.34865478E-02  1.23098440E-04
  3.98379154E-02 -5.02888738E-02  3.11001378E-02  2.72558705E-04  2.55951883E-04
 -4.08021501E-01 -1.82070131E-01  5.60123698E-03  2.44208339E-03  4.02119441E-01
  1.79405576E-01 -2.21332741E-05  2.28529677E-04  8.09676210E-01 -2.63743033E-01
 -1.13641457E-03 -3.34205707E-04 -1.16594662E+00  3.79802326E-01  1.63456091E-03
 -1.38889811E-01  1.38917633E-01 -1.57284536E-05 -4.23686564E-02  1.14174804E-01
 -3.70920187E-02  3.97621694E-04 -9.46552204E-04  6.11106519E-01 -1.17644066E+00
  1.88553865E-01 -3.63052231E-01 -8.00649209E-01  1.54101600E+00 -1.41264994E-05
  1.53258911E-04  2.63747093E-01  8.09694565E-01 -1.77106492E-04 -2.34106539E-04
 -3.79801252E-01 -1.16600139E+00  2.54902812E-04 -3.66271561E-02  3.65764995E-02
  6.23570612E-05  1.60516442E-01  3.72306625E-02  1.13992086E-01  1.24503143E-04
 -3.31898129E-04 -5.71275097E-01  1.09960198E+00  8.14900851E-01 -1.56872578E+00
 -2.44133425E-01  4.69843573E-01  3.87158803E-02 -3.65440057E-01  1.15779242E-03
 -1.44061417E-04  8.00615358E-01  5.28210736E-01 -1.67181112E-03  2.11743595E-04
 -1.15394931E+00  8.52296974E-02  8.54338535E-02 -2.00233269E-01  2.17516981E-05
 -1.26701160E-04  9.07015784E-05 -5.53099163E-01  1.36717815E+00  5.24895108E-01
 -7.69466274E-01  5.25015221E-01 -7.69705726E-01  5.24043453E-01 -7.67833454E-01
  9.32418359E-02 -7.35300853E-01 -2.65490955E-04  1.46482956E-04 -3.83787937E-01
  9.63944308E-01  3.34869238E-04 -1.87970445E-04  5.03961888E-01 -7.07137296E-02
 -7.07422534E-02  7.38593396E-02  1.29148453E-05  1.30269909E-04 -4.19262456E-05
  9.64574620E-01 -1.16443531E+00  4.84723192E-01 -2.49384863E-01  4.84798191E-01
 -2.49513669E-01  4.84799193E-01 -2.49475151E-01  1.01330219E-01  2.06520544E+00
  2.04048110E-05 -5.27011181E-06  4.56591202E-03 -5.57572824E+00 -1.15729930E-04
  4.84160216E-05 -8.04624770E-02  1.16763916E-01  1.16705939E-01  1.02511965E-01
  4.21581783E-06  1.30257894E-05 -7.16698004E-06  2.54135705E-01  1.21808412E+00
  3.05868455E-01  1.01500663E+00  3.05853852E-01  1.01506940E+00  3.05897664E-01
  1.01501201E+00 -1.04016016E-05 -9.95662323E-05 -2.98177326E-03  2.02626811E-04
  4.60535620E-06  3.22785685E-04 -5.76550123E-04  3.98131290E-05  4.02325632E-06
  4.98736500E-01 -4.97754756E-01 -9.87768263E-04  6.20333927E-03  8.15980339E-01
 -5.59587932E-02 -5.02346262E-05 -5.94490432E-05 -2.32432562E-03  1.00103319E-03
 -1.96876593E-03  8.37284718E-04  4.13353271E-03 -1.98696423E-03 -2.72223692E-06
 -2.25979655E-05  2.04558475E-04  2.98553068E-03 -4.50052931E-07  7.71392660E-05
  3.72744512E-05  5.84886041E-04 -3.89074165E-07 -5.65031300E-03  5.94892836E-03
 -3.01595286E-04  5.74286104E-01 -5.56546493E-02 -8.16728910E-01 -9.81150205E-06
 -1.45406497E-05 -3.55372523E-03  1.62284610E-03  3.73217239E-03 -1.74238541E-03
 -2.17230499E-04  8.44355824E-05  2.90820263E-06 -3.30610761E-05  1.49519409E-01
 -1.90475319E-02 -9.68665462E-05  1.21187779E-05  4.28418784E-01 -5.45774214E-02
 -2.35960473E-04  7.97609237E-01 -7.98400455E-01  8.06943158E-04  6.45691475E-02
 -6.44977551E-01  8.18223951E-02 -1.10046400E-05 -4.75210046E-05  4.59443125E-01
 -5.14359857E-02  3.14498923E-01 -3.51958248E-02 -7.73880831E-01  8.66543345E-02
  1.82560782E-06 -9.34235038E-06  1.90561568E-02  1.49538955E-01  8.81111447E-06
 -2.42486163E-05  5.45922718E-02  4.28407045E-01  2.41101911E-05  5.56948656E-02
 -5.53844875E-02 -3.09145420E-04 -9.22264564E-01 -8.23821878E-02 -6.43816821E-01
  9.68663310E-05 -9.88951254E-07 -6.28412669E-01  7.03736153E-02  7.12067180E-01
 -7.97292861E-02 -8.37091334E-02  9.36970232E-03  5.52119757E-03 -3.13715364E-02
 -1.41863329E-04  3.41515620E-05 -2.08541216E-01 -7.43914025E-02 -3.35386553E-04
  7.67349257E-05 -4.38517760E-01  5.80322800E-01  5.80320353E-01 -1.15124684E+00
  9.87161947E-05 -1.35598323E-03  5.87068022E-04  9.20044296E-01 -8.57925799E-02
 -2.66440773E-01  4.30241085E-02 -2.66591468E-01  4.30546582E-02 -2.66525426E-01
  4.30988646E-02 -4.89303716E-01  2.93055561E+00 -8.67823950E-06  5.95083953E-06
 -1.31451789E-02  2.49543641E+00  2.66085120E-05 -9.05947618E-06  1.61464239E-02
 -1.87607211E+00 -1.87608874E+00 -1.89987132E+00 -2.02505627E-06 -2.36545847E-05
  5.79624237E-06  1.61379889E-01 -5.48766331E-01  1.24555219E-01 -4.93654604E-01
  1.24563338E-01 -4.93669203E-01  1.24536937E-01 -4.93648184E-01
Alpha Orbital Energies                     R   N=          23
 -1.01616975E+01 -6.94457128E-01 -3.96502823E-01 -3.88529584E-01 -3.88525787E-01
  1.20430609E-01  1.76510114E-01  1.76521614E-01  1.88408477E-01  5.20457054E-01
  5.34136113E-01  5.34140779E-01  8.98100940E-01  8.98118000E-01  9.18075042E-01
  9.76808238E-01  1.10377681E+00  1.65381437E+00  1.65382273E+00  2.24291802E+00
  2.24295273E+00  2.29703282E+00  4.18854474E+00
Total SCF Density                          R   N=         276
  2.05037327E+00 -5.21638987E-02  2.94908771E-01 -1.04716740E-06  2.98296739E-06
  3.97569844E-01  1.24046691E-06 -3.69674217E-06  7.48704169E-07  3.97581172E-01
 -2.69617854E-03  6.40090730E-03  1.45619568E-05 -2.24514387E-06  4.12115587E-01
 -1.71233061E-01  2.69419757E-01 -4.81974655E-06  4.41194654E-06 -4.81968642E-03
  2.53896699E-01  1.49086007E-06 -2.75556602E-06  1.92481256E-01  9.73853376E-07
 -1.06292836E-05 -5.78675789E-06  9.31887433E-02 -5.28891101E-07  5.92943956E-07
 -2.98344646E-07  1.92482420E-01  1.84638209E-06  4.28031298E-06  1.51386647E-07
  9.31872148E-02  1.47324754E-04 -2.72144082E-04 -2.66435852E-06  3.98929621E-06
  1.89459779E-01 -5.20404878E-03 -9.37429600E-06  3.25412870E-06  8.71347549E-02
 -1.91783110E-02 -9.16293334E-05  1.60948856E-02 -9.17045843E-04 -1.24317028E-02
  1.40316605E-03  7.79276980E-03 -4.44080611E-04 -5.72437382E-03  1.21015741E-03
 -1.91779838E-02 -9.17153107E-05 -1.61233575E-02  9.28731566E-04 -1.24094747E-02
  1.40310725E-03 -7.80551374E-03  4.49576042E-04 -5.71337104E-03 -9.91066147E-05
  1.21110051E-03 -1.95257874E-02  1.00915439E-03  2.87566050E-05 -1.17942547E-05
  2.42447960E-02  1.46089215E-03  1.28626238E-05 -5.52588307E-06  1.11313155E-02
 -5.48465697E-04 -5.49476879E-04  1.60933048E-03 -4.61919561E-08  2.11681951E-07
 -1.05962578E-03 -1.86167143E-02 -3.96639763E-06 -4.69096590E-08 -5.13040457E-04
 -9.01297595E-03 -2.03482711E-06  1.66699021E-07 -3.94881990E-07  2.38594154E-07
  8.74550552E-04 -1.10527760E-06  2.73661787E-06 -1.23128924E-02 -3.83974879E-06
  3.54427541E-05  1.83623337E-06 -5.96122081E-03 -1.83821212E-06  1.65587436E-05
 -4.99533353E-04  4.98262465E-04  1.23074356E-06  3.29953818E-05  3.81338241E-04
  9.64804533E-08 -2.84127100E-07 -3.73783386E-06 -1.22895679E-02 -1.47819578E-05
 -1.16433657E-07 -1.82791042E-06 -5.94979333E-03 -6.94893114E-06  2.86441585E-05
 -2.81101839E-05 -5.09832318E-07  5.75468318E-04  2.32440496E-07  3.79881432E-04
 -5.73965757E-02  1.09658838E-01  1.81689358E-04 -6.92720071E-05  2.68907233E-01
  9.55199070E-02  7.50019858E-05 -3.07743398E-05  1.22458254E-01 -7.71967045E-03
 -7.71950976E-03  1.63951208E-02  1.67082790E-07  1.86162977E-05 -7.61107703E-06
  2.13874846E-01 -9.24707032E-03  2.93707785E-02  1.33870522E-04 -5.68759451E-05
  2.15576528E-01  2.14627909E-02  5.52162075E-05 -2.57939518E-05  9.88208205E-02
 -6.45829965E-03 -6.45717949E-03  1.27687610E-02  2.06555074E-07  1.48317254E-05
 -6.02661576E-06  1.50034130E-01  1.15069640E-01 -5.33985962E-02  1.01401617E-01
 -1.19241785E-01  2.15834153E-01 -8.88295845E-02  9.71695541E-02 -5.77275023E-02
  1.04492967E-01 -4.19668210E-02 -2.27268615E-03  8.38735058E-03 -4.68219752E-03
 -9.78771340E-03  3.68395700E-03 -6.66735846E-03 -2.06252909E-02 -3.74052106E-02
  2.08541391E-01 -1.01877932E-02  2.94581301E-02 -1.00569628E-01  1.82041028E-01
 -7.63341462E-02  2.92296543E-02 -4.86870898E-02  8.81320541E-02 -3.54243369E-02
 -2.12843669E-03  6.86231836E-03 -4.38766952E-03 -8.25526593E-03  3.10652236E-03
 -5.62336815E-03 -3.88223533E-02 -3.72741705E-02  1.56216505E-01  1.26128322E-01
 -5.33995406E-02  1.01404404E-01 -1.27361027E-01 -2.11102888E-01 -8.89347533E-02
  9.71666823E-02 -6.16590405E-02 -1.02201604E-01 -4.20203769E-02 -1.61335042E-03
  7.72251927E-03 -4.67642765E-03  1.02252258E-02  3.93950210E-03  6.52970368E-03
 -2.06244171E-02 -3.74029394E-02 -2.07708672E-02 -3.71921527E-02  2.08543117E-01
 -1.01878756E-02  2.94594224E-02 -1.07414209E-01 -1.78044314E-01 -7.64237279E-02
  2.92262552E-02 -5.20014056E-02 -8.61973628E-02 -3.54699001E-02 -1.57218722E-03
  6.30147610E-03 -4.38286188E-03  8.62394952E-03  3.32195034E-03  5.50723937E-03
 -3.88225730E-02 -3.72728077E-02 -3.71901992E-02 -3.69963335E-02  1.56213584E-01
  1.26122584E-01 -5.33957905E-02  1.01397998E-01  2.46428756E-01 -4.66434504E-03
 -8.91218875E-02  9.71628227E-02  1.19309555E-01 -2.25838334E-03 -4.21125523E-02
  1.30486679E-02 -6.94820683E-03 -4.66728933E-03 -4.37456362E-04 -7.63891175E-03
  1.45029680E-04 -2.06213786E-02 -3.74114226E-02 -2.07701996E-02 -3.71877463E-02
 -2.07701739E-02 -3.71858532E-02  2.08538360E-01 -1.01885099E-02  2.94598315E-02
  2.07849696E-01 -3.93530288E-03 -7.65891669E-02  2.92286793E-02  1.00632157E-01
 -1.90585842E-03 -3.55512054E-02  1.07944087E-02 -6.07194907E-03 -4.37556249E-03
 -3.68923341E-04 -6.44358189E-03  1.22444304E-04 -3.88227991E-02 -3.72834121E-02
 -3.71894407E-02 -3.69935877E-02 -3.71878963E-02 -3.69904986E-02  1.56222694E-01
  1.26139064E-01
Pure Switching                             I                1
Dipole_Data                                R   N=           3
  1.41056502E-05 -3.08128050E-05  3.23933592E-02
Quadrupole_Data                            R   N=           6
 -8.20817099E+00  1.59845814E-05 -8.20820663E+00  1.35422260E-04 -2.69781717E-05
 -8.23497091E+00
Octapole_Data                              R   N=          10
  5.42112079E-01 -3.09297671E-02 -5.43068746E-01  3.11843599E-02 -3.20620622E-01
 -1.17777273E-04 -3.19920928E-01  9.73751193E-04 -3.92958914E-04  8.34081735E-01
Hexadecapole_Data                          R   N=          15
 -1.50449180E+01  1.54155766E-04 -5.01421204E+00 -2.24424542E-04 -1.50435710E+01
 -3.09987177E-01  1.77262908E-02  3.09774328E-01 -1.75845470E-02 -5.10209710E+00
  1.41499917E-04 -5.10280032E+00  7.69420409E-04 -2.38370286E-04 -1.42320173E+01
