Jobname.Temp
SP        R                             6-31G(d)            
Number of atoms                            I                5
Charge                                     I                0
Multiplicity                               I                1
Number of electrons                        I               10
Number of alpha electrons                  I                5
Number of beta electrons                   I                5
Atomic numbers                             I   N=           5
           6           1           1           1           1
Current cartesian coordinates              R   N=          15
 -6.18013475E-06 -4.16413997E-06  2.83324185E-02  4.31456475E-04 -1.67598972E-04
  1.81093739E+00 -9.41621972E-01  1.70530488E+00 -6.60009231E-01 -1.00621285E+00
 -1.66788609E+00 -6.60253099E-01  1.94744045E+00 -3.72261993E-02 -6.60669567E-01
Nuclear charges                            R   N=           5
  6.00000000E+00  1.00000000E+00  1.00000000E+00  1.00000000E+00  1.00000000E+00
Number of basis functions                  I               23
Number of contracted shells                I               12
Number of primitive shells                 I               27
Highest angular momentum                   I                2
Largest degree of contraction              I                6
Shell types                                I   N=          12
           0          -1          -1           2           0           0
           0           0           0           0           0           0
Number of primitives per shell             I   N=          12
           6           3           1           1           3           1
           3           1           3           1           3           1
Shell to atom map                          I   N=          12
           1           1           1           1           2           2
           3           3           4           4           5           5
Primitive exponents                        R   N=          27
  3.04752490E+03  4.57369510E+02  1.03948690E+02  2.92101550E+01  9.28666300E+00
  3.16392700E+00  7.86827240E+00  1.88128850E+00  5.44249300E-01  1.68714400E-01
  8.00000000E-01  1.87311370E+01  2.82539370E+00  6.40121700E-01  1.61277800E-01
  1.87311370E+01  2.82539370E+00  6.40121700E-01  1.61277800E-01  1.87311370E+01
  2.82539370E+00  6.40121700E-01  1.61277800E-01  1.87311370E+01  2.82539370E+00
  6.40121700E-01  1.61277800E-01
Contraction coefficients                   R   N=          27
  1.83470016E-03  1.40373012E-02  6.88426061E-02  2.32184421E-01  4.67941342E-01
  3.62312032E-01 -1.19332409E-01 -1.60854212E-01  1.14345648E+00  1.00000000E+00
  1.00000000E+00  3.34945995E-02  2.34726947E-01  8.13757318E-01  1.00000000E+00
  3.34945995E-02  2.34726947E-01  8.13757318E-01  1.00000000E+00  3.34945995E-02
  2.34726947E-01  8.13757318E-01  1.00000000E+00  3.34945995E-02  2.34726947E-01
  8.13757318E-01  1.00000000E+00
P(S=P) Contraction coefficients            R   N=          27
  0.00000000E+00  0.00000000E+00  0.00000000E+00  0.00000000E+00  0.00000000E+00
  0.00000000E+00  6.89990956E-02  3.16423980E-01  7.44308252E-01  1.00000000E+00
  0.00000000E+00  0.00000000E+00  0.00000000E+00  0.00000000E+00  0.00000000E+00
  0.00000000E+00  0.00000000E+00  0.00000000E+00  0.00000000E+00  0.00000000E+00
  0.00000000E+00  0.00000000E+00  0.00000000E+00  0.00000000E+00  0.00000000E+00
  0.00000000E+00  0.00000000E+00
Coordinates of each shell                  R   N=          36
 -6.18013475E-06 -4.16413997E-06  2.83324185E-02 -6.18013475E-06 -4.16413997E-06
  2.83324185E-02 -6.18013475E-06 -4.16413997E-06  2.83324185E-02 -6.18013475E-06
 -4.16413997E-06  2.83324185E-02  4.31456475E-04 -1.67598972E-04  1.81093739E+00
  4.31456475E-04 -1.67598972E-04  1.81093739E+00 -9.41621972E-01  1.70530488E+00
 -6.60009231E-01 -9.41621972E-01  1.70530488E+00 -6.60009231E-01 -1.00621285E+00
 -1.66788609E+00 -6.60253099E-01 -1.00621285E+00 -1.66788609E+00 -6.60253099E-01
  1.94744045E+00 -3.72261993E-02 -6.60669567E-01  1.94744045E+00 -3.72261993E-02
 -6.60669567E-01
Overlap Matrix                             R   N=         276
  1.00000000E+00  2.19058872E-01  1.00000000E+00  4.12237198E-22 -9.84980758E-23
  1.00000000E+00 -2.17111713E-22  9.10690207E-23  0.00000000E+00  1.00000000E+00
  7.11845503E-19 -4.65046578E-18 -1.38467937E-39 -8.62182203E-40  1.00000000E+00
  1.84261053E-01  8.12273068E-01 -4.29415232E-22  2.99603121E-22  0.00000000E+00
  1.00000000E+00  4.42856697E-23 -6.69175725E-22  5.69754058E-01  2.08474388E-43
  0.00000000E+00  6.95835169E-22  1.00000000E+00  7.31956384E-23 -4.56097568E-23
  2.08474388E-43  5.69754058E-01  0.00000000E+00  0.00000000E+00  0.00000000E+00
  1.00000000E+00 -4.17570535E-21  0.00000000E+00  0.00000000E+00  0.00000000E+00
  5.69754058E-01  0.00000000E+00  0.00000000E+00  0.00000000E+00  1.00000000E+00
  7.91027073E-02  7.10235064E-01  0.00000000E+00 -6.21802944E-22  8.45187896E-19
  6.29936196E-01  1.31499528E-21  0.00000000E+00  0.00000000E+00  1.00000000E+00
  7.91027073E-02  7.10235064E-01  0.00000000E+00 -1.86540883E-21  8.45187896E-19
  6.29936196E-01  4.38331760E-22  0.00000000E+00  0.00000000E+00  3.33333333E-01
  1.00000000E+00  7.91027073E-02  7.10235064E-01  0.00000000E+00 -6.21802944E-22
  2.53556369E-18  6.29936196E-01  4.38331760E-22  0.00000000E+00  0.00000000E+00
  3.33333333E-01  3.33333333E-01  1.00000000E+00  1.14831685E-44  0.00000000E+00
 -1.07699429E-21  0.00000000E+00  0.00000000E+00  0.00000000E+00  0.00000000E+00
  7.59212878E-22  0.00000000E+00  0.00000000E+00  0.00000000E+00  0.00000000E+00
  1.00000000E+00 -2.49753656E-39  0.00000000E+00  1.46390838E-18  0.00000000E+00
  0.00000000E+00  0.00000000E+00  0.00000000E+00  0.00000000E+00  7.59212878E-22
  0.00000000E+00  0.00000000E+00  0.00000000E+00  0.00000000E+00  1.00000000E+00
 -5.02201192E-41  0.00000000E+00  0.00000000E+00  1.46390838E-18 -1.07699429E-21
  0.00000000E+00  0.00000000E+00  0.00000000E+00  0.00000000E+00  0.00000000E+00
  0.00000000E+00  0.00000000E+00  0.00000000E+00  0.00000000E+00  1.00000000E+00
  6.00465987E-02  3.74685046E-01  1.13209760E-04 -4.22780400E-05  4.61132081E-01
  4.35913453E-01  1.26570098E-04 -4.72674414E-05  5.15552130E-01  1.73327358E-01
  1.73327337E-01  5.66549288E-01 -1.53301508E-08  1.67207948E-04 -6.24435943E-05
  1.00000000E+00  1.08840777E-01  5.42218650E-01  6.46629874E-05 -2.41483099E-05
  2.63388757E-01  7.69203039E-01  1.35154847E-04 -5.04734046E-05  5.50519988E-01
  4.05276080E-01  4.05276077E-01  4.74969445E-01 -2.71706561E-09  2.96353879E-05
 -1.10672977E-05  6.58292049E-01  1.00000000E+00  3.22670405E-02  2.71611275E-01
 -1.67379656E-01  3.03132172E-01 -1.22358173E-01  3.75719756E-01 -2.34604123E-01
  4.24878740E-01 -1.71500723E-01  1.86508581E-01  3.46075341E-01  1.53921235E-01
 -2.19542863E-01  8.86176599E-02 -1.60490614E-01  2.93527449E-02  1.79476146E-01
  1.00000000E+00  9.18331960E-02  4.74645936E-01 -1.21089549E-01  2.19298683E-01
 -8.85190973E-02  7.03035538E-01 -2.65783490E-01  4.81345993E-01 -1.94293519E-01
  3.66874974E-01  4.05171125E-01  3.59053985E-01 -5.26904627E-02  2.12683092E-02
 -3.85178757E-02  1.79476146E-01  4.50021266E-01  6.58292049E-01  1.00000000E+00
  3.22688893E-02  2.71619422E-01 -1.78867332E-01 -2.96489379E-01 -1.22405723E-01
  3.75724947E-01 -2.50700453E-01 -4.15559514E-01 -1.71563861E-01  1.96447374E-01
  3.36122935E-01  1.53953571E-01  2.29463101E-01  9.47339050E-02  1.57030333E-01
  2.93554429E-02  1.79482684E-01  1.80275534E-02  1.47834879E-01  1.00000000E+00
  9.18346470E-02  4.74651812E-01 -1.29397453E-01 -2.14488414E-01 -8.85516014E-02
  7.03041419E-01 -2.84017494E-01 -4.70785635E-01 -1.94363980E-01  3.69263502E-01
  4.02784826E-01  3.59065236E-01  5.50698119E-02  2.27355871E-02  3.76863681E-02
  1.79482684E-01  4.50031357E-01  1.47834879E-01  3.99365003E-01  6.58292049E-01
  1.00000000E+00  3.22647783E-02  2.71601305E-01  3.46159510E-01 -6.61623342E-03
 -1.22470412E-01  3.75713404E-01  4.85199231E-01 -9.27373442E-03 -1.71662334E-01
  4.15872587E-01  1.16623765E-01  1.53985894E-01 -9.91028882E-03 -1.83445334E-01
  3.50623662E-03  2.93587605E-02  1.79490722E-01  1.80245548E-02  1.47825061E-01
  1.80244188E-02  1.47824615E-01  1.00000000E+00  9.18314205E-02  4.74638745E-01
  2.50433043E-01 -4.78658948E-03 -8.86026153E-02  7.03028343E-01  5.49686898E-01
 -1.05063034E-02 -1.94477917E-01  4.21920367E-01  3.50097991E-01  3.59065234E-01
 -2.37855735E-03 -4.40285098E-02  8.41527935E-04  1.79490722E-01  4.50043764E-01
  1.47825061E-01  3.99348667E-01  1.47824615E-01  3.99347926E-01  6.58292049E-01
  1.00000000E+00
Core Hamiltonian Matrix                    R   N=         276
 -1.99582039E+01 -4.10140852E+00 -6.79162484E+00 -1.98596630E-06 -1.24232535E-05
 -6.04833421E+00  1.15276698E-06  7.05852980E-06 -2.27892038E-06 -6.04833401E+00
 -7.62757208E-03 -4.50047742E-02 -1.94706460E-05  4.74916770E-06 -6.08885272E+00
 -3.53385583E+00 -5.42985355E+00 -9.95752167E-06  5.09907754E-06 -3.10705121E-02
 -5.48227262E+00 -3.33552483E-07 -6.63521347E-06 -3.09326914E+00 -1.51154860E-06
 -1.16240738E-05 -7.69912056E-06 -3.77516189E+00  1.93624946E-07  3.26742047E-06
 -1.51154860E-06 -3.09326740E+00  2.67673379E-06  1.60997953E-06 -1.29090716E-06
 -3.77515506E+00 -1.28105166E-03 -1.93684296E-02 -1.16240738E-05  2.67673379E-06
 -3.10988124E+00 -6.94541673E-03 -8.68538762E-06  1.85067654E-06 -3.76753636E+00
 -1.50769023E+00 -4.45417054E+00 -5.09287293E-02  2.92849733E-03  2.41016022E-02
 -3.80089948E+00 -4.91712648E-02  2.82655012E-03  2.91244144E-02 -4.81407544E+00
 -1.50769025E+00 -4.45417060E+00  5.09447812E-02 -2.93075491E-03  2.40832862E-02
 -3.80089859E+00  4.91909263E-02 -2.83300650E-03  2.91062164E-02 -2.31581435E+00
 -4.81408744E+00 -1.50930461E+00 -4.49101596E+00 -4.40906092E-05  1.81186758E-05
 -1.47868069E-01 -3.82803072E+00 -3.67320168E-05  1.47920108E-05 -1.06426767E-01
 -2.31060682E+00 -2.31059477E+00 -4.91165880E+00 -1.23452567E-07 -3.49106771E-06
  5.07230616E-03  8.82389494E-02  7.17216087E-06 -3.25189837E-06  4.89572841E-03
  8.52011835E-02  6.67990793E-06 -7.38202675E-06  3.28941266E-06 -5.04172401E-06
 -3.74744305E+00 -1.16287272E-06 -2.99363522E-05  4.17451995E-02  7.17216087E-06
 -7.63671753E-05 -2.60841057E-05  5.04449656E-02  6.67990793E-06 -6.36217194E-05
  2.84431366E-02 -2.84573742E-02 -6.26601329E-05 -2.83435516E-03 -3.73182047E+00
  2.97363474E-07  7.31385533E-06  7.17216087E-06  4.17134752E-02  3.13824670E-05
  6.14891266E-06  6.67990793E-06  5.04134456E-02  2.56205142E-05 -1.63641572E-03
  1.63505777E-03  1.99625015E-05 -4.92896179E-02 -8.73252215E-06 -3.73178430E+00
 -1.15687118E+00 -2.49915068E+00 -6.62566662E-04  2.47304022E-04 -2.68985875E+00
 -2.50319927E+00 -5.95099481E-04  2.21947094E-04 -2.41519456E+00 -1.21426531E+00
 -1.21426414E+00 -3.10782767E+00 -3.33558692E-07 -8.08357003E-04  3.01436293E-04
 -4.56713660E+00 -2.08938543E+00 -3.58531904E+00 -3.63985655E-04  1.36118085E-04
 -1.46532652E+00 -3.94431072E+00 -5.00542399E-04  1.85447299E-04 -2.00628314E+00
 -2.44271440E+00 -2.44271159E+00 -2.84850660E+00 -1.91288546E-06 -1.80005910E-04
  6.55773538E-05 -3.27862714E+00 -4.19491522E+00 -6.22206305E-01 -1.74926067E+00
  9.47457045E-01 -1.71588858E+00  6.89883324E-01 -1.99865425E+00  1.04388593E+00
 -1.89052539E+00  7.61797482E-01 -1.14855534E+00 -1.91378135E+00 -9.92561428E-01
  1.05284910E+00 -4.23678624E-01  7.67299351E-01 -2.38592621E-01 -1.00382113E+00
 -4.07042355E+00 -1.76261358E+00 -3.11615136E+00  6.61076525E-01 -1.19724444E+00
  4.69451368E-01 -3.53789023E+00  9.63742288E-01 -1.74538518E+00  7.00654652E-01
 -2.19782098E+00 -2.40025135E+00 -2.16633045E+00  2.78514384E-01 -1.10717325E-01
  2.00496894E-01 -1.08688039E+00 -2.23500055E+00 -2.97862533E+00 -3.92419581E+00
 -6.22241890E-01 -1.74931825E+00  1.01248601E+00  1.67829167E+00  6.90153549E-01
 -1.99869492E+00  1.11551279E+00  1.84906751E+00  7.62081334E-01 -1.19622776E+00
 -1.86606336E+00 -9.92725637E-01 -1.10042389E+00 -4.52920484E-01 -7.50755841E-01
 -2.38612523E-01 -1.00386091E+00 -1.46522307E-01 -8.33777731E-01 -4.07046195E+00
 -1.76264146E+00 -3.11619230E+00  7.06434070E-01  1.17098851E+00  4.69628056E-01
 -3.53792623E+00  1.02986107E+00  1.70709513E+00  7.00909124E-01 -2.21045030E+00
 -2.38764374E+00 -2.16639398E+00 -2.91096250E-01 -1.18356217E-01 -1.96165689E-01
 -1.08691565E+00 -2.23504665E+00 -8.33772036E-01 -1.96220374E+00 -2.97864923E+00
 -3.92421920E+00 -6.22162937E-01 -1.74919314E+00 -1.95944514E+00  3.74515877E-02
  6.90515865E-01 -1.99860800E+00 -2.15891848E+00  4.12639537E-02  7.62511882E-01
 -2.24849829E+00 -8.13401924E-01 -9.92860193E-01  4.75265388E-02  8.77046189E-01
 -1.67629189E-02 -2.38629943E-01 -1.00388036E+00 -1.46499836E-01 -8.33715902E-01
 -1.46500100E-01 -8.33715554E-01 -4.07038471E+00 -1.76257963E+00 -3.11610473E+00
 -1.36722783E+00  2.61338830E-02  4.69903197E-01 -3.53785089E+00 -1.99319993E+00
  3.80965441E-02  7.01317843E-01 -2.48878402E+00 -2.10913585E+00 -2.16638767E+00
  1.25722920E-02  2.29169924E-01 -4.37773950E-03 -1.08695006E+00 -2.23507562E+00
 -8.33721847E-01 -1.96212887E+00 -8.33727194E-01 -1.96213364E+00 -2.97860144E+00
 -3.92417433E+00
Number of independent functions            I               23
Alpha MO coefficients                      R   N=         529
  9.92690400E-01  5.07317272E-02  6.81666004E-09 -3.20592288E-08  3.08839676E-04
 -1.56526492E-02 -1.49522251E-07  5.77574251E-08 -4.10495249E-04 -9.66946978E-03
 -9.66932584E-03 -9.33289034E-03  1.78742392E-08  1.62457502E-07 -3.51748725E-08
 -3.05367383E-04  3.50757563E-03 -1.03761733E-04  2.59735137E-03 -1.03781801E-04
  2.59741654E-03 -1.03583190E-04  2.59724570E-03 -2.00709593E-01  3.82437115E-01
  1.16258793E-05 -6.66132813E-06  4.10962674E-02  3.39416077E-01  5.39742342E-07
  8.24034969E-07  3.13436511E-03 -5.88751470E-04 -5.90138948E-04  5.33367954E-03
  2.56061829E-07  4.20119003E-06 -5.67196846E-07  1.71874501E-01  4.45442375E-02
  1.26867696E-01  3.49540046E-02  1.26871769E-01  3.49564614E-02  1.26866440E-01
  3.49581977E-02  6.83301347E-03 -1.07942905E-02  2.85847286E-04 -5.35393207E-05
  4.68711922E-01 -4.81312908E-02  1.20553400E-04 -2.22520739E-05  1.95522579E-01
 -1.59691863E-02 -1.59846896E-02  2.84830557E-02  3.93467508E-07  5.40540239E-06
 -4.75813264E-06  2.87707327E-01  2.14613453E-01 -1.09409203E-01 -9.03490368E-02
 -1.09397204E-01 -9.03391200E-02 -1.09227000E-01 -9.02039288E-02 -8.28939116E-07
 -1.63549272E-06  3.90841503E-01  2.14160954E-01 -2.24360486E-04  2.36263540E-05
  1.90591031E-01  1.04430122E-01 -9.68648908E-05  1.53205510E-02 -1.53103250E-02
 -8.61193281E-06 -1.10566854E-02 -1.01200419E-02 -5.54301156E-03 -9.96114384E-05
 -8.98237216E-05 -8.41313342E-04 -7.05722556E-04 -2.38599896E-01 -2.00993718E-01
  2.39556837E-01  2.01811955E-01  2.12912867E-07 -4.42682235E-07  2.14157527E-01
 -3.90846253E-01 -1.84567344E-04  5.64521087E-06  1.04431275E-01 -1.90587076E-01
 -8.58641877E-05  9.57789046E-03 -9.57259374E-03 -3.71098311E-06  1.76881913E-02
 -5.54383855E-03  1.01138769E-02 -6.54795078E-05 -5.39100364E-05 -2.76040012E-01
 -2.32542068E-01  1.38821500E-01  1.16946207E-01  1.37292940E-01  1.15663650E-01
  1.58249491E-01 -1.82696321E-01 -2.02602257E-05 -1.51344095E-05  8.30424370E-02
 -2.71784156E+00 -9.77928002E-05 -3.51792324E-05  1.91072169E-01  1.54470384E-02
  1.54452001E-02  9.27263089E-03 -2.44726847E-07 -4.25418747E-06 -2.91582882E-08
 -2.28845948E-02  8.40691202E-01  2.27355554E-02  1.07446902E+00  2.27308733E-02
  1.07443102E+00  2.27538268E-02  1.07465441E+00  1.81679357E-05 -1.63731416E-05
  3.76112008E-01 -7.67593859E-02 -1.10722346E-04 -4.13060381E-04  1.33040032E+00
 -2.71483607E-01 -4.40287984E-04 -1.36602765E-02  1.36695937E-02 -8.11122168E-07
 -2.28895378E-03  1.53597721E-02 -3.13238033E-03  2.46986068E-05  3.60996026E-04
  7.83056734E-02  1.14295776E+00  4.04178258E-02  5.90082901E-01 -1.18748165E-01
 -1.73284934E+00  5.62787335E-06 -8.88432844E-06  7.67553509E-02  3.76122748E-01
  1.41980301E-05 -1.31421264E-04  2.71515970E-01  1.33037705E+00  5.64404319E-05
 -1.97833628E-03  1.97799576E-03  9.55518587E-07  1.57889048E-02  3.13629405E-03
  1.53559058E-02 -2.37686619E-06  4.92338124E-05 -9.19036756E-02 -1.34109310E+00
  1.13772674E-01  1.66041800E+00 -2.18736038E-02 -3.19188614E-01 -2.46099796E-02
  1.30546407E-02  1.20773585E-04 -4.00183110E-05  3.41871200E-01  9.82774550E-01
  5.57793974E-04 -1.57577657E-04  1.57799900E+00  3.90143267E-03  3.90126314E-03
 -1.96309695E-02  7.75669287E-07 -5.38388082E-06  1.64157598E-06 -7.32102484E-02
 -2.66246853E+00  4.80698423E-02  4.71729519E-01  4.80751534E-02  4.71687218E-01
  4.80599706E-02  4.71304613E-01  7.62714044E-03  5.33271491E-02  1.68549565E-05
 -1.19393280E-05  6.81831928E-01 -4.46647509E-01 -2.09104266E-04  6.86039858E-05
 -1.55753660E+00 -4.71219319E-02 -4.71039362E-02  7.05164487E-02 -3.97223394E-06
  3.72645170E-05 -1.40655594E-05  5.02492484E-01  5.08997952E-01 -1.51696210E-01
 -2.19026824E-02 -1.51743843E-01 -2.18823952E-02 -1.51821157E-01 -2.17802006E-02
 -1.39167281E-06 -7.42018987E-06  3.94013782E-01  6.52252257E-01 -1.18190337E-05
  3.85322436E-05 -7.47458499E-01 -1.23733755E+00 -1.30869404E-05  3.39120557E-02
 -3.39196630E-02  5.98661005E-06 -7.41707187E-02 -3.06063823E-02 -5.06365100E-02
  8.65913972E-06  2.89356093E-05  2.34996405E-01  1.01574123E-01 -4.70540922E-01
 -2.03478357E-01  2.35526163E-01  1.01848134E-01  8.11110319E-07  1.13312712E-05
 -6.52276178E-01  3.94005224E-01  6.60157058E-05  1.88057221E-05  1.23736483E+00
 -7.47418046E-01  1.64819557E-05 -6.41969647E-02  6.42437407E-02 -3.37089496E-05
 -3.91844579E-02  5.06564356E-02 -3.05811258E-02 -7.37751785E-05 -1.78993426E-04
  4.07678754E-01  1.76299175E-01 -2.80487016E-04 -6.67172993E-05 -4.07304472E-01
 -1.76104411E-01 -1.86320642E-05  2.15603222E-04  8.10918433E-01 -2.63451754E-01
 -4.39723163E-04 -3.14099979E-04 -1.17273345E+00  3.81005422E-01  6.45600685E-04
 -1.37567526E-01  1.37568270E-01  1.32738248E-05 -4.17157813E-02  1.19378742E-01
 -3.87526869E-02  1.21699392E-04 -4.12454442E-04  6.08666266E-01 -1.17747993E+00
  1.88782329E-01 -3.65248848E-01 -7.98070123E-01  1.54365376E+00  1.19243409E-05
 -1.46120433E-04 -2.63455706E-01 -8.10935062E-01  1.03028343E-04  2.25081991E-04
  3.81004522E-01  1.17278083E+00 -1.55201545E-04  3.61085404E-02 -3.60869515E-02
 -3.45453978E-05 -1.58887105E-01 -3.87977164E-02 -1.19326555E-01 -3.81572910E-05
  1.61833041E-04  5.69871216E-01 -1.10232013E+00 -8.12050448E-01  1.57091336E+00
  2.42545794E-01 -4.69107510E-01  6.45906987E-02 -6.62617659E-01  4.84045805E-04
  1.33795608E-05  6.46519341E-01  9.37499079E-01 -7.16891683E-04 -8.28932938E-06
 -9.81968432E-01  5.41318410E-02  5.42363481E-02 -1.71418688E-01  2.07341815E-05
  6.02140963E-06  2.79135657E-05 -2.13152821E-01  9.76950051E-01  6.38742001E-01
 -8.57058988E-01  6.38862982E-01 -8.57295747E-01  6.38307702E-01 -8.56210283E-01
  9.94978183E-02 -1.63400531E-02 -1.76568291E-04  7.67104337E-05 -6.73235811E-01
 -9.12903944E-01  1.88102737E-04 -7.75591405E-05  7.70253095E-01 -8.54455053E-02
 -8.54928515E-02  1.85684310E-01  8.62796781E-06  8.92157508E-05 -3.21888525E-05
  1.12565763E+00 -1.03450603E+00  3.89805053E-01  2.97170919E-01  3.89831055E-01
  2.97148656E-01  3.89892896E-01  2.97064945E-01 -8.13862177E-02 -2.14895219E+00
 -6.64332062E-05  2.65102705E-05 -2.01386609E-01  5.83833291E+00  1.70143508E-04
 -7.59191118E-05  4.85630792E-01 -1.51031330E-01 -1.50988007E-01 -2.54085889E-02
 -3.32575797E-06  1.15889573E-05 -1.57449465E-06  1.10908527E-01 -1.98993721E+00
 -2.44134571E-01 -9.22224194E-01 -2.44114674E-01 -9.22294247E-01 -2.44139348E-01
 -9.22254092E-01  9.97803706E-06  9.89532367E-05  1.07160482E-02 -3.46931601E-04
 -9.95618066E-06 -3.35778063E-04  2.97092234E-04 -9.57197935E-06 -6.49348486E-06
 -4.92996208E-01  4.92664515E-01  3.30953615E-04  1.42652671E-02 -8.21677934E-01
  2.67587984E-02  5.07374930E-05  7.63023697E-05  7.23623843E-03 -3.80499144E-03
  6.91459684E-03 -3.63244516E-03 -1.39823505E-02  7.58211671E-03 -3.34537350E-06
 -2.73188777E-05  3.49403692E-04  1.07180214E-02  1.35561064E-06  9.93925874E-05
  6.92700418E-06  3.01654000E-04  8.12131129E-07  1.22793619E-02 -1.21672305E-02
 -1.15195816E-04  5.68747238E-01 -2.66673464E-02 -8.21908064E-01 -1.24241080E-05
 -2.28016942E-05 -1.20957304E-02  6.46461200E-03  1.22485883E-02 -6.59476390E-03
 -2.01611462E-04  8.74209464E-05  3.22210333E-06 -3.27647680E-05  1.51898268E-01
 -2.03070632E-02 -2.53424167E-05  1.65602472E-05  4.27508551E-01 -5.71533375E-02
 -2.92997250E-05  8.01074107E-01 -8.01331408E-01  2.75839488E-04  7.00477890E-02
 -6.37999568E-01  8.51877789E-02 -1.03517049E-05 -5.68920467E-05  4.64007003E-01
 -5.24377280E-02  3.10691633E-01 -3.50978591E-02 -7.74637464E-01  8.75616676E-02
 -1.69647347E-06  9.32518865E-06 -2.03155621E-02 -1.51918322E-01 -1.46869457E-06
  2.70067725E-05 -5.71682076E-02 -4.27497325E-01 -5.53640392E-06 -6.05894459E-02
  6.04924695E-02  9.71072408E-05  9.25397393E-01  8.53739237E-02  6.37652353E-01
 -3.79418079E-05 -7.61815041E-06  6.26631632E-01 -7.08387045E-02 -7.15160179E-01
  8.08334975E-02  8.85215441E-02 -1.00024336E-02 -1.28181940E-02  1.46669726E-01
  8.60850416E-05 -2.42892666E-05  3.72002951E-01  1.93799888E-01  1.37165963E-04
 -3.39586853E-05  4.45525315E-01 -6.12810192E-01 -6.12804421E-01  1.20807576E+00
 -3.06065373E-05  4.85771341E-04 -2.06073216E-04 -1.16282172E+00  7.76163018E-02
  2.48430970E-01 -6.20433860E-02  2.48482891E-01 -6.20640016E-02  2.48471561E-01
 -6.21143717E-02  4.92707513E-01 -2.90880811E+00  1.18313593E-05 -7.21456319E-06
  5.23560142E-02 -2.61988076E+00 -2.76144767E-05  9.92395854E-06 -5.32546252E-02
  1.86748845E+00  1.86750653E+00  1.95045704E+00  1.77180474E-06  2.70845081E-05
 -7.40026741E-06 -2.41131384E-01  6.74765626E-01 -1.17692053E-01  4.92050786E-01
 -1.17699675E-01  4.92065370E-01 -1.17672752E-01  4.92042766E-01
Alpha Orbital Energies                     R   N=          23
 -1.01512717E+01 -7.05072990E-01 -4.11329771E-01 -3.87826120E-01 -3.87821926E-01
  1.23353677E-01  1.76312459E-01  1.76323082E-01  2.11875515E-01  4.95384025E-01
  5.36118814E-01  5.36124306E-01  8.98125377E-01  8.98141846E-01  9.31838222E-01
  1.08330926E+00  1.11542735E+00  1.64704169E+00  1.64705454E+00  2.24076984E+00
  2.24080064E+00  2.41887046E+00  4.20736654E+00
Total SCF Density                          R   N=         276
  2.05153052E+00 -5.29433131E-02  2.97896743E-01 -1.30369444E-06  1.25394547E-06
  3.97241218E-01  1.35718016E-06 -4.29696908E-06  6.13688593E-07  3.97251422E-01
 -9.47823576E-03  2.13459874E-02  1.44838751E-05 -2.56016861E-06  4.42759897E-01
 -1.67982358E-01  2.59061524E-01  1.26165778E-06  6.33977913E-06 -1.72316330E-02
  2.35529801E-01  8.62457278E-07 -2.92079310E-06  1.93711326E-01  1.15564004E-06
 -1.10174968E-05 -1.04869075E-06  9.44616937E-02 -7.74499712E-07  9.43683697E-07
 -7.49903704E-08  1.93710201E-01  2.70045583E-06  5.48241298E-06  3.80837841E-07
  9.44581688E-02  5.98833288E-04 -1.86530981E-03 -6.42492070E-07  4.65201324E-06
  1.83544971E-01 -1.66809553E-02 -7.71164237E-06  3.80153672E-06  7.64781771E-02
 -1.91795002E-02 -1.08672516E-03  1.60690257E-02 -9.23119126E-04 -1.50346698E-02
  1.44110938E-03  7.83653383E-03 -4.50281652E-04 -6.24503801E-03  1.35063091E-03
 -1.91788267E-02 -1.08731995E-03 -1.60770591E-02  9.26797277E-04 -1.50285030E-02
  1.43999179E-03 -7.83922934E-03  4.51816394E-04 -6.24188651E-03  4.57186305E-05
  1.35079006E-03 -2.02811324E-02  2.51773801E-03  8.08622707E-06 -3.90821909E-06
  2.71333247E-02  1.17098916E-03  2.81820729E-06 -1.64406148E-06  1.11792610E-02
 -7.35829632E-04 -7.36060565E-04  1.85367106E-03 -3.60610969E-08  2.09680032E-07
 -1.06670425E-03 -1.85625472E-02 -1.17805513E-06 -1.87363941E-07 -5.20209289E-04
 -9.05158335E-03 -7.40101032E-07  2.88775226E-08 -9.40714848E-08  8.39698864E-08
  8.70244809E-04 -1.27561081E-06  3.15118135E-06 -1.02851711E-02 -1.05923293E-06
  1.20000580E-05  1.78568745E-06 -5.01547737E-03 -5.06684630E-07  5.05254707E-06
 -4.16466520E-04  4.15839180E-04  5.65160385E-07  2.76672916E-05  2.66298880E-04
  1.06319798E-07 -3.25505240E-07 -9.54954857E-07 -1.02801345E-02 -5.75314532E-06
 -7.36325360E-08 -4.87598175E-07 -5.01286297E-03 -2.52716468E-06  2.40485419E-05
 -2.37479878E-05 -2.56039006E-07  4.80367044E-04  5.15610156E-08  2.66031010E-04
 -6.56681764E-02  1.25220200E-01  6.25666696E-05 -2.45780359E-05  2.83830389E-01
  8.89880416E-02  1.79075096E-05 -8.36671691E-06  1.13584273E-01 -9.38968755E-03
 -9.39047510E-03  1.82287168E-02  2.00733610E-07  7.29656289E-06 -3.15305976E-06
  2.24632915E-01 -7.98412487E-03  2.97934305E-02  3.04249690E-05 -1.99065859E-05
  2.04847199E-01  9.46900502E-03  6.29281974E-06 -7.68886360E-06  8.41999348E-02
 -6.97847318E-03 -6.97768264E-03  1.26353936E-02  2.70987581E-07  5.11133815E-06
 -2.18778710E-06  1.38801646E-01  9.61108751E-02 -5.26284388E-02  9.93895394E-02
 -1.18949332E-01  2.15428081E-01 -9.20330084E-02  9.66539752E-02 -5.80013569E-02
  1.05048679E-01 -4.19409876E-02 -1.96656933E-03  8.66061109E-03 -4.87527352E-03
 -9.74671393E-03  3.07755392E-03 -5.57344530E-03 -1.93086339E-02 -3.56297382E-02
  2.08529185E-01 -1.01092868E-02  2.89496693E-02 -1.00203759E-01  1.81483324E-01
 -8.17346227E-02  3.23411640E-02 -4.88600851E-02  8.84957070E-02 -3.50734978E-02
 -1.68193629E-03  7.27058906E-03 -4.82070989E-03 -8.21094437E-03  2.59195304E-03
 -4.69516007E-03 -3.99437477E-02 -3.56228183E-02  1.57021579E-01  1.26935577E-01
 -5.26293789E-02  9.93928042E-02 -1.27109738E-01 -2.10703266E-01 -9.20678787E-02
  9.66490350E-02 -6.19816271E-02 -1.02744123E-01 -4.19614527E-02 -1.30514571E-03
  7.99794401E-03 -4.87353017E-03  1.01872294E-02  3.28995723E-03  5.45406823E-03
 -1.93072927E-02 -3.56262432E-02 -2.01091016E-02 -3.55902292E-02  2.08531049E-01
 -1.01095272E-02  2.89516866E-02 -1.07074387E-01 -1.77496779E-01 -8.17642594E-02
  3.23363568E-02 -5.22112612E-02 -8.65523898E-02 -3.50908199E-02 -1.12458126E-03
  6.71219794E-03 -4.81926414E-03  8.58172929E-03  2.77078583E-03  4.59459993E-03
 -3.99430637E-02 -3.56200431E-02 -3.55884527E-02 -3.53247995E-02  1.57018588E-01
  1.26929495E-01 -5.26253131E-02  9.93835117E-02  2.46002647E-01 -4.70341495E-03
 -9.21227575E-02  9.66516044E-02  1.19963924E-01 -2.29355051E-03 -4.19872994E-02
  1.33113891E-02 -6.61970023E-03 -4.87211919E-03 -4.40502590E-04 -6.37102510E-03
  1.22290667E-04 -1.93062458E-02 -3.56393950E-02 -2.01083688E-02 -3.55853389E-02
 -2.01082314E-02 -3.55830540E-02  2.08524942E-01 -1.01093842E-02  2.89487624E-02
  2.07242702E-01 -3.96373401E-03 -8.18176592E-02  3.23435462E-02  1.01063190E-01
 -1.93342743E-03 -3.51157582E-02  1.11889436E-02 -5.60173953E-03 -4.81846946E-03
 -3.71034041E-04 -5.36781268E-03  1.03142402E-04 -3.99447558E-02 -3.56340866E-02
 -3.55872923E-02 -3.53211493E-02 -3.55854273E-02 -3.53176111E-02  1.57025388E-01
  1.26943431E-01
Pure Switching                             I                1
Dipole_Data                                R   N=           3
  6.91974192E-06 -3.29467238E-05  7.78164119E-02
Quadrupole_Data                            R   N=           6
 -8.11366121E+00  1.52607976E-05 -8.11370961E+00  1.12957823E-04 -2.73347080E-05
 -8.20024804E+00
Octapole_Data                              R   N=          10
  5.34249423E-01 -3.07321080E-02 -5.34507305E-01  3.07139959E-02 -1.99564247E-01
 -3.75531365E-05 -1.99357337E-01  2.68110423E-04 -1.27549915E-04  9.31707098E-01
Hexadecapole_Data                          R   N=          15
 -1.49497831E+01  7.47817122E-05 -4.98298085E+00 -5.42866416E-05 -1.49490626E+01
 -3.02323431E-01  1.73866481E-02  3.02463831E-01 -1.73962046E-02 -4.82810671E+00
  4.94922933E-05 -4.82823685E+00  3.39449718E-04 -8.54452865E-05 -1.30558070E+01
