                  Welcome to Q-Chem
     A Quantum Leap Into The Future Of Chemistry


 Q-Chem 5.3 (devel), Q-Chem, Inc., Pleasanton, CA (2020)

 Yihan Shao,  Zhengting Gan,  E. Epifanovsky,  A. T. B. Gilbert,  M. Wormit,  
 J. Kussmann,  A. W. Lange,  A. Behn,  Jia Deng,  Xintian Feng,  D. Ghosh,  
 M. Goldey,  P. R. Horn,  L. D. Jacobson,  I. Kaliman,  T. Kus,  A. Landau,  
 Jie Liu,  E. I. Proynov,  R. M. Richard,  R. P. Steele,  E. J. Sundstrom,  
 H. L. Woodcock III,  P. M. Zimmerman,  D. Zuev,  B. Alam,  B. Albrecht,  
 A. Aldossary,  E. Alguire,  S. A. Baeppler,  D. Barton,  Z. Benda,  
 Y. A. Bernard,  E. J. Berquist,  K. B. Bravaya,  H. Burton,  K. Carter-Fenk,  
 D. Casanova,  Chun-Min Chang,  Yunqing Chen,  A. Chien,  K. D. Closser,  
 M. P. Coons,  S. Coriani,  S. Dasgupta,  A. L. Dempwolff,  M. Diedenhofen,  
 Hainam Do,  R. G. Edgar,  Po-Tung Fang,  S. Faraji,  S. Fatehi,  
 Qingguo Feng,  J. Fosso-Tande,  J. Gayvert,  Qinghui Ge,  A. Ghysels,  
 G. Gidofalvi,  J. Gomes,  J. Gonthier,  S. Gulania,  A. Gunina,  D. Hait,  
 M. W. D. Hanson-Heine,  S. Hammes-Schiffer,  P. H. P. Harbach,  
 A. W. Hauser,  M. F. Herbst,  J. E. Herr,  E. G. Hohenstein,  Z. C. Holden,  
 S. Houck,  Kerwin Hui,  B. C. Huynh,  M. Ivanov,  T.-C. Jagau,  Hyunjun Ji,  
 B. Kaduk,  K. Khistyaev,  Jaehoon Kim,  P. Klunzinger,  K. Koh,  
 D. Kosenkov,  L. Koulias,  T. Kowalczyk,  C. M. Krauter,  A. Kunitsa,  
 Ka Un Lao,  A. Laurent,  K. V. Lawler,  Joonho Lee,  D. Lefrancois,  
 S. Lehtola,  D. S. Levine,  Yi-Pei Li,  You-Sheng Lin,  Fenglai Liu,  
 Kuan-Yu Liu,  E. Livshits,  M. Loipersberger,  A. Luenser,  A. Manjanath,  
 P. Manohar,  E. Mansoor,  S. F. Manzer,  Shan-Ping Mao,  Yuezhi Mao,  
 N. Mardirossian,  A. V. Marenich,  T. Markovich,  L. A. Martinez-Martinez,  
 S. A. Maurer,  N. J. Mayhall,  S. C. McKenzie,  J.-M. Mewes,  P. Morgante,  
 A. F. Morrison,  J. W. Mullinax,  K. Nanda,  T. S. Nguyen-Beck,  
 R. Olivares-Amaya,  K. J. Oosterbaan,  J. A. Parkhill,  S. K. Paul,  
 F. Pavosevic,  Zheng Pei,  T. M. Perrine,  F. Plasser,  P. Pokhilko,  
 S. Prager,  A. Prociuk,  E. Ramos,  B. Rana,  D. R. Rehn,  F. Rob,  
 E. Rossomme,  M. Scheurer,  M. Schneider,  N. Sergueev,  S. M. Sharada,  
 S. Sharma,  W. Skomorowski,  D. W. Small,  T. Stauch,  C. J. Stein,  
 T. Stein,  Yu-Chuan Su,  S. P. Veccham,  Zhen Tao,  A. J. W. Thom,  
 A. Tkatchenko,  T. Tsuchimochi,  N. M. Tubman,  L. Vogt,  M. L. Vidal,  
 O. Vydrov,  M. A. Watson,  J. Wenzel,  M. de Wergifosse,  T. A. Wesolowski,  
 A. White,  J. Witte,  A. Yamada,  Jun Yang,  K. Yao,  S. Yeganeh,  
 S. R. Yost,  Zhi-Qiang You,  A. Zech,  Igor Ying Zhang,  Xing Zhang,  
 Yan Zhao,  Ying Zhu,  B. R. Brooks,  G. K. L. Chan,  C. J. Cramer,  
 M. S. Gordon,  W. J. Hehre,  A. Klamt,  M. W. Schmidt,  C. D. Sherrill,  
 D. G. Truhlar,  A. Aspuru-Guzik,  R. Baer,  A. T. Bell,  N. A. Besley,  
 Jeng-Da Chai,  A. E. DePrince, III,  R. A. DiStasio Jr.,  A. Dreuw,  
 B. D. Dunietz,  T. R. Furlani,  Chao-Ping Hsu,  Yousung Jung,  Jing Kong,  
 D. S. Lambrecht,  WanZhen Liang,  C. Ochsenfeld,  V. A. Rassolov,  
 L. V. Slipchenko,  J. E. Subotnik,  T. Van Voorhis,  J. M. Herbert,  
 A. I. Krylov,  P. M. W. Gill,  M. Head-Gordon

 Contributors to earlier versions of Q-Chem not listed above: 
 R. D. Adamson,  B. Austin,  J. Baker,  G. J. O. Beran,  K. Brandhorst,  
 S. T. Brown,  E. F. C. Byrd,  A. K. Chakraborty,  C.-L. Cheng,  
 Siu Hung Chien,  D. M. Chipman,  D. L. Crittenden,  H. Dachsel,  
 R. J. Doerksen,  A. D. Dutoi,  L. Fusti-Molnar,  W. A. Goddard III,  
 A. Golubeva-Zadorozhnaya,  S. R. Gwaltney,  G. Hawkins,  A. Heyden,  
 S. Hirata,  G. Kedziora,  F. J. Keil,  C. Kelley,  Jihan Kim,  R. A. King,  
 R. Z. Khaliullin,  P. P. Korambath,  W. Kurlancheek,  A. M. Lee,  M. S. Lee,  
 S. V. Levchenko,  Ching Yeh Lin,  D. Liotard,  R. C. Lochan,  I. Lotan,  
 P. E. Maslen,  N. Nair,  D. P. O'Neill,  D. Neuhauser,  E. Neuscamman,  
 C. M. Oana,  R. Olson,  B. Peters,  R. Peverati,  P. A. Pieniazek,  
 Y. M. Rhee,  J. Ritchie,  M. A. Rohrdanz,  E. Rosta,  N. J. Russ,  
 H. F. Schaefer III,  N. E. Schultz,  N. Shenvi,  A. C. Simmonett,  A. Sodt,  
 D. Stuck,  K. S. Thanthiriwatte,  V. Vanovschi,  Tao Wang,  A. Warshel,  
 C. F. Williams,  Q. Wu,  X. Xu,  W. Zhang

 Please cite Q-Chem as follows:
 Y. Shao et al., Mol. Phys. 113, 184-215 (2015)
 DOI: 10.1080/00268976.2014.952696

 Q-Chem 5.3.2 for Intel X86 EM64T Linux

 Parts of Q-Chem use Armadillo 9.800.1 (Horizon Scraper).
 http://arma.sourceforge.net/

Compilation information
-----------------------

 SVN revision             | 35976
 SVN branch               | trunk
 Last SVN revision        | 35971
 Last SVN author          | tarek.scheele
 Hostname                 | osmium
 User                     | eric
 System                   | Linux-5.8.14-arch1-1
 Processor                | x86_64
 Compiler                 | GNU
 C compiler version       | 9.3.0
 CXX compiler version     | 9.3.0
 Fortran compiler version | 9.3.0
 Configuration time       | 2021-02-25 00:06:41


 Q-Chem begins on Sat May 15 12:24:06 2021  

Host: osmium
0

     Scratch files written to /tmp/qchem/qchem3922137//
Processing $rem in /home/eric/data/opt/apps/qchem/archive/r35971-g9.3.0-openblas/config/preferences:
Processing $rem in /home/eric/.qchemrc:

Checking the input file for inconsistencies... 	...done.

--------------------------------------------------------------
User input:
--------------------------------------------------------------
$rem
gui                  2
basis                6-31g(d)
exchange             b3lyp
scf_convergence      11
$end

$molecule
0 1
C   -0.0000105292 0.0000006962 -0.0000178037
H   0.6523453784 0.8821906858 0.6846964317
H   0.5235734368 -0.1915343166 -0.9404885774
H   -1.0052896422 0.3737584792 -0.2121539026
H   -0.0697381211 -0.9279889972 0.5738454712
$end
--------------------------------------------------------------
 ----------------------------------------------------------------
             Standard Nuclear Orientation (Angstroms)
    I     Atom           X                Y                Z
 ----------------------------------------------------------------
    1      C       0.0200071317     0.0000038592    -0.0000020334
    2      H      -1.2733068078     0.0002037433     0.0000758754
    3      H       0.3845982369     0.4980341557     0.9024115395
    4      H       0.3844698083     0.5324229256    -0.8826002403
    5      H       0.3841959726    -1.0306839795    -0.0198749742
 ----------------------------------------------------------------
 Molecular Point Group                 C1    NOp =  1
 Largest Abelian Subgroup              C1    NOp =  1
 Nuclear Repulsion Energy =          12.86972616 hartrees
 There are        5 alpha and        5 beta electrons
 Requested basis set is 6-31G(d)
 There are 12 shells and 23 basis functions

 Total QAlloc Memory Limit   2000 MB
 Mega-Array Size       188 MB
 MEM_STATIC part       192 MB

                       Distance Matrix (Angstroms)
             C (  1)   H (  2)   H (  3)   H (  4)
   H (  2)  1.293314
   H (  3)  1.093303  1.952100
   H (  4)  1.093290  1.952075  1.785343
   H (  5)  1.093319  1.952036  1.785383  1.785385

 A cutoff of  1.0D-14 yielded     78 shell pairs
 There are       303 function pairs
 Smallest overlap matrix eigenvalue = 2.01E-02

 Scale SEOQF with 1.000000e+00/1.000000e+00/1.000000e+00

 Standard Electronic Orientation quadrupole field applied
 Nucleus-field energy     =     0.0000000002 hartrees
 Guess from superposition of atomic densities
 Warning:  Energy on first SCF cycle will be non-variational
 SAD guess density has 10.000000 electrons

 -----------------------------------------------------------------------
  General SCF calculation program by
  Eric Jon Sundstrom, Paul Horn, Yuezhi Mao, Dmitri Zuev, Alec White,
  David Stuck, Shaama M.S., Shane Yost, Joonho Lee, David Small,
  Daniel Levine, Susi Lehtola, Hugh Burton, Evgeny Epifanovsky,
  Bang C. Huynh
 -----------------------------------------------------------------------
 Exchange:     0.2000 Hartree-Fock + 0.0800 Slater + 0.7200 B88
 Correlation:  0.1900 VWN1RPA + 0.8100 LYP
 Using SG-1 standard quadrature grid
 A restricted SCF calculation will be
 performed using DIIS
 SCF converges when DIIS error is below 1.0e-11
 ---------------------------------------
  Cycle       Energy         DIIS error
 ---------------------------------------
    1     -40.3621242998      1.31e-01  
    2     -40.4533320631      2.59e-02  
    3     -40.4446855327      2.78e-02  
    4     -40.5010051828      1.57e-04  
    5     -40.5010075204      5.00e-05  
    6     -40.5010076757      7.61e-06  
    7     -40.5010076800      9.27e-07  
    8     -40.5010076801      3.74e-08  
    9     -40.5010076801      2.10e-09  
   10     -40.5010076801      1.49e-10  
   11     -40.5010076801      5.07e-12  Convergence criterion met
 ---------------------------------------
 SCF time:   CPU 0.69s  wall 1.00s 
 SCF   energy in the final basis set =      -40.5010076801
 Total energy in the final basis set =      -40.5010076801

 --------------------------------------------------------------

                    Orbital Energies (a.u.)
 --------------------------------------------------------------

 Alpha MOs
 -- Occupied --
-10.1866  -0.6801  -0.3922  -0.3922  -0.3600
 -- Virtual --
  0.0901   0.1423   0.1760   0.1760   0.5307   0.5307   0.5817   0.7942
  0.8943   0.8943   0.9199   1.0851   1.6626   1.6626   2.0680   2.2433
  2.2434   4.1507
 --------------------------------------------------------------

          Ground-State Mulliken Net Atomic Charges

     Atom                 Charge (a.u.)
  ----------------------------------------
      1 C                    -0.598437
      2 H                     0.107777
      3 H                     0.163557
      4 H                     0.163564
      5 H                     0.163539
  ----------------------------------------
  Sum of atomic charges =     0.000000

 -----------------------------------------------------------------
                    Cartesian Multipole Moments
 -----------------------------------------------------------------
    Charge (ESU x 10^10)
                 0.0000
    Dipole Moment (Debye)
         X       0.1817      Y      -0.0000      Z      -0.0000
       Tot       0.1817
    Quadrupole Moments (Debye-Ang)
        XX      -8.3252     XY       0.0002     YY      -8.4020
        XZ       0.0000     YZ      -0.0000     ZZ      -8.4021
    Octopole Moments (Debye-Ang^2)
       XXX      -0.4657    XXY       0.0004    XYY       0.6909
       YYY      -0.5641    XXZ       0.0001    XYZ       0.0000
       YYZ      -0.0327    XZZ       0.6912    YZZ       0.5637
       ZZZ       0.0324
    Hexadecapole Moments (Debye-Ang^3)
      XXXX     -17.7333   XXXY       0.0000   XXYY      -5.9270
      XYYY      -0.3312   YYYY     -15.2250   XXXZ      -0.0001
      XXYZ       0.0000   XYYZ      -0.0191   YYYZ      -0.0000
      XXZZ      -5.9266   XYZZ       0.3318   YYZZ      -5.0751
      XZZZ       0.0193   YZZZ      -0.0001   ZZZZ     -15.2248
 -----------------------------------------------------------------
Archival summary:
1\1\osmium\SP\ProcedureUnspecified\6-31G*\14\eric\SatMay1512:24:072021SatMay1512:24:072021\0\\#,ProcedureUnspecified,6-31G*,\\0,1\C\H,1,1.09329\H,1,1.0933,2,109.471\H,1,1.09332,2,109.474,3,-120.003,0\H,1,1.29331,2,109.471,3,120.002,0\\\@

 Total job time:  0.79s(wall), 0.78s(cpu) 
 Sat May 15 12:24:07 2021

        *************************************************************
        *                                                           *
        *  Thank you very much for using Q-Chem.  Have a nice day.  *
        *                                                           *
        *************************************************************


