Jobname.Temp
SP        R                             6-31G(d)            
Number of atoms                            I                5
Charge                                     I                0
Multiplicity                               I                1
Number of electrons                        I               10
Number of alpha electrons                  I                5
Number of beta electrons                   I                5
Atomic numbers                             I   N=           5
           6           1           1           1           1
Current cartesian coordinates              R   N=          15
  3.78079994E-02  7.29274504E-06 -3.84255250E-06 -2.40620114E+00  3.85019015E-04
  1.43383777E-04  7.26785336E-01  9.41148155E-01  1.70531066E+00  7.26542641E-01
  1.00613351E+00 -1.66787273E+00  7.26025166E-01 -1.94771044E+00 -3.75582581E-02
Nuclear charges                            R   N=           5
  6.00000000E+00  1.00000000E+00  1.00000000E+00  1.00000000E+00  1.00000000E+00
Number of basis functions                  I               23
Number of contracted shells                I               12
Number of primitive shells                 I               27
Highest angular momentum                   I                2
Largest degree of contraction              I                6
Shell types                                I   N=          12
           0          -1          -1           2           0           0
           0           0           0           0           0           0
Number of primitives per shell             I   N=          12
           6           3           1           1           3           1
           3           1           3           1           3           1
Shell to atom map                          I   N=          12
           1           1           1           1           2           2
           3           3           4           4           5           5
Primitive exponents                        R   N=          27
  3.04752490E+03  4.57369510E+02  1.03948690E+02  2.92101550E+01  9.28666300E+00
  3.16392700E+00  7.86827240E+00  1.88128850E+00  5.44249300E-01  1.68714400E-01
  8.00000000E-01  1.87311370E+01  2.82539370E+00  6.40121700E-01  1.61277800E-01
  1.87311370E+01  2.82539370E+00  6.40121700E-01  1.61277800E-01  1.87311370E+01
  2.82539370E+00  6.40121700E-01  1.61277800E-01  1.87311370E+01  2.82539370E+00
  6.40121700E-01  1.61277800E-01
Contraction coefficients                   R   N=          27
  1.83470016E-03  1.40373012E-02  6.88426061E-02  2.32184421E-01  4.67941342E-01
  3.62312032E-01 -1.19332409E-01 -1.60854212E-01  1.14345648E+00  1.00000000E+00
  1.00000000E+00  3.34945995E-02  2.34726947E-01  8.13757318E-01  1.00000000E+00
  3.34945995E-02  2.34726947E-01  8.13757318E-01  1.00000000E+00  3.34945995E-02
  2.34726947E-01  8.13757318E-01  1.00000000E+00  3.34945995E-02  2.34726947E-01
  8.13757318E-01  1.00000000E+00
P(S=P) Contraction coefficients            R   N=          27
  0.00000000E+00  0.00000000E+00  0.00000000E+00  0.00000000E+00  0.00000000E+00
  0.00000000E+00  6.89990956E-02  3.16423980E-01  7.44308252E-01  1.00000000E+00
  0.00000000E+00  0.00000000E+00  0.00000000E+00  0.00000000E+00  0.00000000E+00
  0.00000000E+00  0.00000000E+00  0.00000000E+00  0.00000000E+00  0.00000000E+00
  0.00000000E+00  0.00000000E+00  0.00000000E+00  0.00000000E+00  0.00000000E+00
  0.00000000E+00  0.00000000E+00
Coordinates of each shell                  R   N=          36
  3.78079994E-02  7.29274504E-06 -3.84255250E-06  3.78079994E-02  7.29274504E-06
 -3.84255250E-06  3.78079994E-02  7.29274504E-06 -3.84255250E-06  3.78079994E-02
  7.29274504E-06 -3.84255250E-06 -2.40620114E+00  3.85019015E-04  1.43383777E-04
 -2.40620114E+00  3.85019015E-04  1.43383777E-04  7.26785336E-01  9.41148155E-01
  1.70531066E+00  7.26785336E-01  9.41148155E-01  1.70531066E+00  7.26542641E-01
  1.00613351E+00 -1.66787273E+00  7.26542641E-01  1.00613351E+00 -1.66787273E+00
  7.26025166E-01 -1.94771044E+00 -3.75582581E-02  7.26025166E-01 -1.94771044E+00
 -3.75582581E-02
Overlap Matrix                             R   N=         276
  1.00000000E+00  2.19058872E-01  1.00000000E+00 -3.06712673E-18  0.00000000E+00
  1.00000000E+00 -2.22763172E-22 -6.79981132E-22  0.00000000E+00  1.00000000E+00
  5.43686424E-23  0.00000000E+00  0.00000000E+00  0.00000000E+00  1.00000000E+00
  1.84261053E-01  8.12273068E-01  0.00000000E+00 -7.29018353E-22  5.03375595E-23
  1.00000000E+00 -3.63390278E-19  0.00000000E+00  5.69754058E-01  0.00000000E+00
  0.00000000E+00  0.00000000E+00  1.00000000E+00 -1.17554803E-22 -6.23565968E-22
  0.00000000E+00  5.69754058E-01  0.00000000E+00 -6.95835169E-22  0.00000000E+00
  1.00000000E+00  4.43591648E-23 -1.27480438E-23  0.00000000E+00  0.00000000E+00
  5.69754058E-01  0.00000000E+00  0.00000000E+00  0.00000000E+00  1.00000000E+00
  7.91027073E-02  7.10235064E-01  0.00000000E+00  6.06413838E-22  1.53891061E-23
  6.29936196E-01 -1.07724413E-17  0.00000000E+00  4.38331760E-22  1.00000000E+00
  7.91027073E-02  7.10235064E-01  0.00000000E+00  1.81924151E-21  1.53891061E-23
  6.29936196E-01 -3.59081378E-18  0.00000000E+00  4.38331760E-22  3.33333333E-01
  1.00000000E+00  7.91027073E-02  7.10235064E-01  0.00000000E+00  6.06413838E-22
  4.61673183E-23  6.29936196E-01 -3.59081378E-18  0.00000000E+00  1.31499528E-21
  3.33333333E-01  3.33333333E-01  1.00000000E+00  9.99631516E-39  0.00000000E+00
  1.05033958E-21  0.00000000E+00  0.00000000E+00  0.00000000E+00  0.00000000E+00
 -6.21947190E-18  0.00000000E+00  0.00000000E+00  0.00000000E+00  0.00000000E+00
  1.00000000E+00 -5.70589005E-39  0.00000000E+00  2.66547136E-23  0.00000000E+00
  0.00000000E+00 -1.24243447E-38  7.59212878E-22  0.00000000E+00 -6.21947190E-18
  0.00000000E+00  0.00000000E+00  0.00000000E+00  0.00000000E+00  1.00000000E+00
 -1.19728698E-42  1.20665242E-43  0.00000000E+00  2.66547136E-23  1.05033958E-21
  0.00000000E+00  0.00000000E+00  7.59212878E-22  0.00000000E+00  0.00000000E+00
  0.00000000E+00  0.00000000E+00  0.00000000E+00  0.00000000E+00  1.00000000E+00
  1.23924889E-02  1.63924841E-01 -2.46767278E-01  3.81383531E-05  1.48651820E-05
  2.97905944E-01 -4.82443831E-01  7.45626135E-05  2.90622622E-05  3.02616630E-01
  6.29194511E-02  6.29194462E-02 -6.41649596E-05 -2.50095698E-05  3.86527667E-09
  1.00000000E+00  7.04197837E-02  3.85451193E-01 -2.53020836E-01  3.91048524E-05
  1.52418943E-05  6.10848380E-01 -5.99395171E-01  9.26376659E-05  3.61073736E-05
  3.68502387E-01  2.78483229E-01  2.78483227E-01 -2.40973868E-05 -9.39243601E-06
  1.45161888E-09  6.58292049E-01  1.00000000E+00  3.22670405E-02  2.71611275E-01
  1.22471172E-01  1.67295233E-01  3.03133143E-01  3.75719756E-01  1.71659105E-01
  2.34485794E-01  4.24880101E-01  1.53990348E-01  1.86437997E-01  3.46076812E-01
  8.86547608E-02  1.60639343E-01  2.19432834E-01  8.71801003E-03  1.10476855E-01
  1.00000000E+00  9.18331960E-02  4.74645936E-01  8.86008452E-02  1.21028474E-01
  2.19299385E-01  7.03035538E-01  1.94472950E-01  2.65649435E-01  4.81347535E-01
  3.59070573E-01  3.66858034E-01  4.05171478E-01  2.12772135E-02  3.85535707E-02
  5.26640556E-02  1.10476855E-01  3.33753327E-01  6.58292049E-01  1.00000000E+00
  3.22688893E-02  2.71619422E-01  1.22432231E-01  1.78853031E-01 -2.96487061E-01
  3.75724947E-01  1.71601016E-01  2.50680408E-01 -4.15556265E-01  1.53969784E-01
  1.96434594E-01  3.36119502E-01  9.47468451E-02 -1.57063112E-01 -2.29442961E-01
  8.71898399E-03  1.10481821E-01  1.80275534E-02  1.47834879E-01  1.00000000E+00
  9.18346470E-02  4.74651812E-01  8.85707787E-02  1.29387107E-01 -2.14486737E-01
  7.03041419E-01  1.94406073E-01  2.83994786E-01 -4.70781954E-01  3.59069127E-01
  3.69260435E-01  4.02784001E-01  2.27386927E-02 -3.76942349E-02 -5.50649783E-02
  1.10481821E-01  3.33762575E-01  1.47834879E-01  3.99365003E-01  6.58292049E-01
  1.00000000E+00  3.22647783E-02  2.71601305E-01  1.22330910E-01 -3.46207700E-01
 -6.67531418E-03  3.75713404E-01  1.71466799E-01 -4.85266777E-01 -9.35654578E-03
  1.53900578E-01  4.15955942E-01  1.16625727E-01 -1.83261887E-01 -3.53351665E-03
  1.00001764E-02  8.72055011E-03  1.10489806E-01  1.80245548E-02  1.47825061E-01
  1.80244188E-02  1.47824615E-01  1.00000000E+00  9.18314205E-02  4.74638745E-01
  8.85016911E-02 -2.50467907E-01 -4.82933213E-03  7.03028343E-01  1.94256394E-01
 -5.49763421E-01 -1.06001211E-02  3.59044757E-01  4.21940372E-01  3.50098462E-01
 -4.39844808E-02 -8.48075384E-04  2.40013116E-03  1.10489806E-01  3.33777443E-01
  1.47825061E-01  3.99348667E-01  1.47824615E-01  3.99347926E-01  6.58292049E-01
  1.00000000E+00
Core Hamiltonian Matrix                    R   N=         276
 -1.98063909E+01 -4.06815270E+00 -6.64589156E+00 -6.33892772E-03 -4.27936963E-02
 -5.89426085E+00  1.09300780E-06  7.98791007E-06 -1.53082362E-05 -5.93169495E+00
  8.35314106E-07  5.51038058E-06 -3.28948651E-06  2.28201859E-06 -5.93169476E+00
 -3.50588286E+00 -5.32197084E+00 -3.48360647E-02  7.71330740E-06  4.34921242E-06
 -5.39244860E+00 -1.06489255E-03 -2.37237348E-02 -3.01955909E+00 -1.11337762E-05
 -2.55234461E-06 -1.69453716E-02 -3.72618932E+00  1.83621547E-07  5.54656311E-06
 -1.11337762E-05 -3.04277721E+00  1.51354438E-06  8.61282216E-06 -1.10828345E-05
 -3.72959168E+00  1.40324895E-07  2.92098584E-06 -2.55234461E-06  1.51354438E-06
 -3.04277548E+00  1.99467671E-06 -2.75443836E-06  1.29259284E-06 -3.72958486E+00
 -1.49545416E+00 -4.34244064E+00 -1.82942090E-03 -1.88564600E-05 -5.63128267E-06
 -3.70822554E+00  2.05177578E-02 -1.99005456E-05 -6.62245309E-06 -4.64768142E+00
 -1.49660248E+00 -4.37573188E+00 -4.88368669E-02  5.09680898E-02  2.95151988E-03
 -3.73906544E+00 -4.21704768E-02  4.92112696E-02  2.84901616E-03 -2.26501262E+00
 -4.71694936E+00 -1.49660250E+00 -4.37573195E+00 -4.88601967E-02 -5.09302860E-02
 -2.93317093E-03 -3.73906456E+00 -4.21924914E-02 -4.91762638E-02 -2.83463024E-03
 -2.26502743E+00 -2.28341737E+00 -4.71693451E+00 -7.83769259E-07 -2.31798347E-05
 -3.26603468E-05 -8.45879347E-02 -4.19998270E-06 -2.28020925E-05 -3.44687560E-05
 -7.30414084E-02 -4.29976500E-06 -1.82865001E-05  2.84211393E-02 -2.84639385E-02
 -3.59503786E+00 -1.60825787E-07 -4.93663369E-06 -9.75366769E-06 -4.19998270E-06
 -8.46283432E-02 -5.05841137E-06 -1.14704252E-05 -4.29976500E-06 -7.30795388E-02
 -3.45402385E-06  1.64365090E-03 -1.65328084E-03 -3.95849087E-06 -3.59508230E+00
  1.23627572E-07  3.49580753E-06 -4.19998270E-06  5.11218240E-03 -8.82138429E-02
  3.25622129E-06 -4.29976500E-06  4.93464074E-03 -8.51757874E-02 -2.28543577E-06
  1.09346246E-06  1.03386082E-05  2.84688686E-03 -4.93009877E-02 -3.65025212E+00
 -2.38160842E-01 -1.00475954E+00  1.33729234E+00 -2.05861622E-04 -8.03427376E-05
 -1.42729019E+00  1.98927387E+00 -3.06341529E-04 -1.19608318E-04 -1.57873251E+00
 -4.35560798E-01 -4.35560440E-01  3.04696158E-04  1.18973005E-04  8.45631871E-08
 -3.52564093E+00 -1.34111083E+00 -2.45949469E+00  1.33222995E+00 -2.02526487E-04
 -7.90093812E-05 -2.94354649E+00  2.12319146E+00 -3.21800704E-04 -1.26709248E-04
 -2.07826553E+00 -1.65182013E+00 -1.65181789E+00  1.09226033E-04  4.36781231E-05
  1.23960139E-06 -2.63119859E+00 -3.54281325E+00 -6.17791624E-01 -1.72772079E+00
 -6.87302164E-01 -9.34952517E-01 -1.69410187E+00 -1.97625552E+00 -7.57165163E-01
 -1.03196422E+00 -1.86988365E+00 -9.80811801E-01 -1.13433536E+00 -1.88931468E+00
 -4.20803408E-01 -7.62479461E-01 -1.03776202E+00 -7.04113337E-02 -6.23317639E-01
 -4.02371074E+00 -1.74901009E+00 -3.06278204E+00 -4.91871523E-01 -6.51029191E-01
 -1.17964550E+00 -3.48831300E+00 -7.05566665E-01 -9.52742866E-01 -1.72634140E+00
 -2.11367647E+00 -2.16501834E+00 -2.36487292E+00 -1.13182245E-01 -2.05067098E-01
 -2.74708804E-01 -5.64270048E-01 -1.58895825E+00 -2.94788671E+00 -3.88030871E+00
 -6.17826931E-01 -1.72777732E+00 -6.87085900E-01 -9.99547322E-01  1.65696365E+00
 -1.97629540E+00 -7.56912503E-01 -1.10324119E+00  1.82885800E+00 -9.80723324E-01
 -1.18162147E+00 -1.84223339E+00 -4.49720100E-01  7.45505010E-01  1.08510347E+00
 -7.04183667E-02 -6.23346647E-01 -1.45239450E-01 -8.24966534E-01 -4.02374809E+00
 -1.74903774E+00 -3.06282188E+00 -4.91709758E-01 -6.95992696E-01  1.15376213E+00
 -3.48834818E+00 -7.05325954E-01 -1.01853934E+00  1.68845075E+00 -2.11367196E+00
 -2.17755351E+00 -2.35242494E+00 -1.20957381E-01  2.00494578E-01  2.87237503E-01
 -5.64292895E-01 -1.58899749E+00 -8.24960997E-01 -1.93751142E+00 -2.94790993E+00
 -3.88033137E+00 -6.17748474E-01 -1.72765305E+00 -6.86515591E-01  1.93482800E+00
  3.73060333E-02 -1.97620889E+00 -7.56314207E-01  2.13563609E+00  4.11777021E-02
 -9.80375009E-01 -2.21978670E+00 -8.04161618E-01  8.69860598E-01  1.67717620E-02
 -4.72940083E-02 -7.04278966E-02 -6.23373016E-01 -1.45217152E-01 -8.24905119E-01
 -1.45217402E-01 -8.24904744E-01 -4.02367087E+00 -1.74897631E+00 -3.06273476E+00
 -4.91334764E-01  1.34731186E+00  2.59792323E-02 -3.48827340E+00 -7.04784329E-01
  1.97172093E+00  3.80173677E-02 -2.11353754E+00 -2.45234146E+00 -2.07759150E+00
  2.33946491E-01  4.50877572E-03 -1.25191859E-02 -5.64326239E-01 -1.58903990E+00
 -8.24911271E-01 -1.93743716E+00 -8.24916432E-01 -1.93744168E+00 -2.94786215E+00
 -3.88028685E+00
Number of independent functions            I               23
Alpha MO coefficients                      R   N=         529
  9.92886329E-01  4.90585496E-02  8.86753510E-05  1.21882487E-07  5.08137306E-09
 -1.37695290E-02 -3.26115197E-04  4.39181488E-08  2.56435170E-08 -9.33843195E-03
 -9.13703768E-03 -9.13687409E-03  1.29861661E-07  1.24085297E-08 -2.41296438E-08
  1.11009703E-05  1.81042128E-03 -1.97663833E-04  2.59289486E-03 -1.97686616E-04
  2.59294658E-03 -1.97460326E-04  2.59272588E-03  1.97849207E-01 -3.80477359E-01
 -3.88009713E-02  2.60032707E-06  5.18640756E-06 -3.77037145E-01 -8.39569404E-03
 -1.47851600E-06  1.56312748E-06  3.57201465E-03 -2.45755280E-03 -2.45843919E-03
 -3.64689962E-06 -3.40912763E-07  2.86970152E-07 -9.23720809E-02 -3.32057208E-02
 -1.42295822E-01 -4.13611860E-02 -1.42299361E-01 -4.13613357E-02 -1.42289319E-01
 -4.13598213E-02 -1.88177135E-06  4.90635770E-06 -6.86865848E-05 -2.47142427E-01
  3.75216510E-01  4.86290535E-06 -3.38383754E-05 -1.14621619E-01  1.74021672E-01
  6.01209349E-08  9.07614340E-03 -9.07593653E-03 -9.82918545E-03  1.49312263E-02
  1.81011623E-02  3.33657984E-05  2.84537392E-05  1.29250073E-01  1.09697255E-01
 -2.77559836E-01 -2.35562648E-01  1.48290810E-01  1.25858300E-01  2.51885216E-06
 -6.26766716E-06  1.82531528E-04  3.75211765E-01  2.47143899E-01 -7.25389553E-06
  8.75709976E-05  1.74018238E-01  1.14626368E-01  2.42817339E-06 -1.56807803E-02
  1.56782999E-02  1.49253054E-02  9.83655045E-03  1.04743941E-02 -6.64953276E-05
 -6.00015979E-05  2.45879999E-01  2.08680103E-01 -1.09770752E-02 -9.31518570E-03
 -2.34855344E-01 -1.99331842E-01  9.15281930E-03 -1.24753179E-02  4.17052294E-01
 -1.87310036E-04 -4.38356292E-05 -4.96365097E-02  2.34929409E-01 -1.02263000E-04
 -2.13938463E-05 -2.06297093E-02  1.02704726E-02  1.02608116E-02  2.78246316E-06
  1.11491831E-06 -2.44865536E-07 -2.92335389E-01 -2.94502036E-01  8.33344216E-02
  7.13600181E-02  8.33479320E-02  7.13743177E-02  8.34383123E-02  7.14615522E-02
 -1.41570599E-01  1.93884507E-01 -2.43115278E-01  4.72528461E-05  2.28981898E-05
  1.83437189E+00 -4.99659174E-01  1.02265295E-04  5.13319797E-05 -2.59700513E-02
 -4.63622287E-03 -4.63687572E-03  2.82460830E-06  1.69932201E-06 -5.26360033E-07
 -1.40694371E-01 -1.30429107E+00 -7.89939527E-03 -5.44383084E-01 -7.89245154E-03
 -5.44350400E-01 -7.88366784E-03 -5.44325675E-01  8.53465150E-02 -9.27573540E-02
 -3.47833653E-01  1.41590431E-04  1.42456580E-05 -1.60483850E+00 -9.96753615E-01
  4.39137275E-04  4.55697728E-05 -1.17439557E-02  1.54160407E-02  1.54099883E-02
  1.45451367E-06  2.69581969E-06 -1.15368163E-07 -1.27432118E-01 -7.61507475E-01
  3.90249946E-02  1.03522255E+00  3.90244432E-02  1.03517328E+00  3.90730302E-02
  1.03564576E+00 -1.25362080E-05  1.09934170E-05  1.56488349E-04  3.70159020E-01
  1.23639839E-01  2.94254905E-04  5.16282730E-04  1.27993876E+00  4.27503057E-01
 -1.73612389E-06  1.33684798E-02 -1.33714964E-02 -6.54045686E-03 -2.18813607E-03
 -4.18183272E-03  1.57481642E-05  2.07640271E-04 -8.70290603E-02 -1.29612090E+00
 -2.58718623E-02 -3.85473063E-01  1.12887359E-01  1.68099596E+00  8.07157081E-06
 -7.63900330E-06 -2.54994783E-05 -1.23642534E-01  3.70164090E-01 -1.86937887E-04
 -7.77981181E-05 -4.27524437E-01  1.27992763E+00 -5.21034154E-07 -3.62139345E-03
  3.62412326E-03  2.18378524E-03 -6.54902497E-03 -1.54360901E-02 -7.09925048E-06
 -5.15731214E-05 -8.01232765E-02 -1.19297725E+00  1.15428646E-01  1.71896966E+00
 -3.53005663E-02 -5.25685972E-01 -1.40028252E-06 -9.83936169E-06  2.59097188E-05
 -8.34087791E-02  7.60536791E-01  4.52282542E-05 -5.39726957E-05  1.60301385E-01
 -1.46148360E+00  5.39686944E-06  3.70531452E-03 -3.71157677E-03 -6.20407091E-03
  5.66523610E-02  8.30468660E-02  4.27837699E-07 -9.50320300E-06  3.76850400E-01
  1.90360840E-01 -4.18274887E-01 -2.11319086E-01  4.14090618E-02  2.09328549E-02
  1.13215222E-06  2.48001126E-05  3.94852041E-05  7.60555814E-01  8.34163523E-02
 -6.98882416E-05 -2.06496353E-04 -1.46152625E+00 -1.60269222E-01  3.57376438E-05
 -7.19546232E-02  7.19319416E-02  5.66159214E-02  6.21791163E-03  4.27177370E-03
  6.56406574E-05 -6.22686905E-05  2.65383126E-01  1.34108198E-01  1.93655571E-01
  9.78990883E-02 -4.59069438E-01 -2.31923711E-01  1.85881325E-02  6.10538874E-02
  9.03530292E-01 -9.55675675E-05 -3.72392562E-05 -4.32647647E-01 -1.48779904E+00
  4.71640848E-05  4.69892806E-05 -1.09473304E-01  5.28192384E-02  5.28426579E-02
  4.10184956E-05  1.49573540E-05  1.46522616E-06 -3.76379794E-01 -2.13476345E-01
  1.83770504E-01  1.82891888E-01  1.83753668E-01  1.82859869E-01  1.83674349E-01
  1.82720217E-01 -3.18892816E-02  4.35985633E-01 -5.02417927E-01  1.41937770E-04
  4.52955661E-05 -7.48460413E-01  8.19424566E-01 -2.35995383E-04 -7.52371942E-05
 -1.49090944E-01  8.47148277E-02  8.47123167E-02  3.81230784E-05  1.57871374E-05
 -1.10075980E-06 -1.11916779E+00  1.69476618E+00 -6.20295570E-03 -1.31086808E-01
 -6.18707667E-03 -1.31132371E-01 -6.15143838E-03 -1.31252068E-01  2.83095472E-05
 -2.03728046E-04  7.88039270E-05  7.85325099E-01  3.15178429E-01  2.87756797E-04
 -1.52112099E-04 -1.12694918E+00 -4.52290523E-01 -7.26797090E-05  1.38610493E-01
 -1.38543578E-01 -1.04275884E-01 -4.18834447E-02 -5.36903836E-02  9.55793368E-05
 -2.65266015E-06 -6.51963051E-01  1.24626479E+00 -1.34935508E-01  2.58087553E-01
  7.87560187E-01 -1.50497789E+00  2.24818408E-05 -1.62458781E-04 -9.34852303E-05
  3.15183143E-01 -7.85340597E-01  2.28224041E-04  1.05480396E-04 -4.52293340E-01
  1.12698899E+00 -3.37251634E-05  4.65406062E-02 -4.65130164E-02 -4.18400676E-02
  1.04338556E-01  1.59972387E-01  3.55759128E-05  5.15931805E-05  5.32781883E-01
 -1.01812742E+00 -8.30919188E-01  1.58828420E+00  2.98693497E-01 -5.70699294E-01
  9.04115975E-02 -5.20006377E-01 -4.32132753E-01 -2.59175631E-04  1.41501667E-04
  6.51975916E-01  4.98639708E-01  4.00819550E-04 -1.87371905E-04 -1.23482966E-01
  5.27784009E-02  5.28712324E-02  9.73761924E-05  4.78537935E-06 -2.98966032E-05
  1.47049005E-01  2.67485291E-01  7.26068456E-01 -6.52947851E-01  7.26260867E-01
 -6.53316763E-01  7.25686406E-01 -6.52197640E-01 -8.29123443E-02 -2.06155067E+00
  1.56310019E-02  8.57982254E-06  3.26103739E-06  5.08046314E+00  2.14452107E-01
 -8.12392401E-05 -3.40847196E-05 -1.37062095E-01 -1.10256791E-01 -1.10199610E-01
 -1.26821076E-05 -7.72920911E-06  1.30913657E-06 -3.79442664E-01 -5.25959206E-01
 -1.96416754E-01 -1.09997168E+00 -1.96396924E-01 -1.10003266E+00 -1.96449749E-01
 -1.09995404E+00  7.89282757E-06  9.05130575E-05 -6.34066051E-06  7.44854772E-03
  8.61638343E-04 -2.53348209E-04  7.26245203E-06  4.53507677E-03  5.22322958E-04
 -2.82862646E-04 -5.05053441E-01  5.05345819E-01 -8.06125739E-01 -9.31487625E-02
  3.35611830E-02  5.41425230E-05  2.62845066E-05 -7.00278731E-03  2.24695335E-03
 -4.99485045E-03  1.61666874E-03  1.21052697E-02 -3.73255018E-03 -1.65098089E-06
 -1.44006344E-05  2.27926999E-06  8.60582327E-04 -7.44370635E-03  4.48311097E-05
  1.86604106E-06  5.24662212E-04 -4.52422631E-03  6.53353589E-05 -2.89720782E-02
  2.89047268E-02 -9.32408748E-02  8.05896465E-01 -5.83664779E-01 -6.04289591E-06
 -4.92450285E-06  9.84641854E-03 -3.09234733E-03 -1.10237052E-02  3.44030712E-03
  1.15256868E-03 -3.70213942E-04  2.44282941E-02 -1.32445890E-02 -1.33017060E-02
  5.00730767E-06  1.72330998E-06 -3.49537785E-01 -4.04249060E-01  4.57834631E-05
  6.25066249E-06  1.07962112E+00 -5.14663804E-01 -5.14643888E-01 -3.54141302E-04
 -1.47716846E-04 -2.64339887E-05 -5.37450462E-01  9.97184786E-02  3.07242242E-01
  3.39613269E-02  3.07208585E-01  3.39553298E-02  3.07239815E-01  3.39044713E-02
 -2.17008583E-06  2.80932820E-05  3.39205552E-05  1.45692514E-01  1.87732790E-02
 -2.70088089E-06  1.31717628E-04  4.28177866E-01  5.51716167E-02  2.20009116E-04
 -7.92869891E-01  7.92641853E-01  6.54098440E-01  8.43943699E-02  6.44635406E-02
  1.11377760E-06  3.19059154E-05 -4.59039769E-01  5.12014471E-02 -3.12866020E-01
  3.48832137E-02  7.71859332E-01 -8.61034785E-02 -2.06191181E-06  9.58511721E-06
 -9.64434030E-07  1.87816370E-02 -1.45712084E-01  2.14138340E-05 -7.62685620E-06
  5.51872616E-02 -4.28160653E-01 -8.78365949E-05 -5.58921673E-02  5.59759627E-02
  8.42458084E-02 -6.54467053E-01 -9.15153468E-01  1.71302235E-05 -7.64467128E-06
  6.26264090E-01 -6.98737015E-02 -7.10702853E-01  7.92816104E-02  8.43817910E-02
 -9.41030446E-03  4.85625086E-01 -2.94461908E+00  2.48271087E-02 -3.77757835E-06
 -4.05463924E-06 -2.31552797E+00 -5.66319910E-02  2.43881555E-05  7.69303679E-06
  1.83397721E+00  1.88802086E+00  1.88803474E+00  1.48974258E-05  2.12389043E-06
 -2.63870868E-06 -2.85164163E-02  3.25666023E-01 -1.38303323E-01  5.03138129E-01
 -1.38312472E-01  5.03152810E-01 -1.38287193E-01  5.03133493E-01
Alpha Orbital Energies                     R   N=          23
 -1.01865758E+01 -6.80123823E-01 -3.92235247E-01 -3.92231710E-01 -3.59998535E-01
  9.00985649E-02  1.42328449E-01  1.75995469E-01  1.76005619E-01  5.30676576E-01
  5.30685364E-01  5.81687521E-01  7.94165843E-01  8.94313247E-01  8.94327976E-01
  9.19917052E-01  1.08512897E+00  1.66263444E+00  1.66264075E+00  2.06798120E+00
  2.24331274E+00  2.24335153E+00  4.15068983E+00
Total SCF Density                          R   N=         276
  2.05010269E+00 -5.33635301E-02  2.94650791E-01 -7.54298396E-03  1.91287599E-02
  3.50876354E-01  6.62483390E-07 -4.42181112E-06  1.44887631E-05  4.03726565E-01
  1.09279905E-06 -2.26853450E-06  1.71245228E-06 -1.22418533E-06  4.03735077E-01
 -1.77444783E-01  2.86795631E-01 -1.21456710E-02  8.78348217E-06  5.04391426E-07
  2.89620784E-01  3.30779973E-04  4.95105964E-04  1.96607199E-01 -5.61188133E-06
 -2.79180583E-06 -1.69821955E-02  1.10524860E-01 -1.06178872E-06  3.74793605E-07
 -5.90972926E-06  1.87243149E-01 -7.47013321E-07  7.62624985E-06 -9.78925470E-06
  8.68409463E-02  2.00337000E-07 -3.82417808E-07 -2.60587975E-08  2.05528349E-06
  1.87250026E-01  9.73937716E-07 -1.77968163E-06  8.70114988E-07  8.68454940E-02
 -1.75082023E-02 -3.11967692E-03 -1.74861857E-02  9.53704518E-06  3.09092273E-06
 -3.88419297E-04 -9.74693868E-03  5.03923971E-06  1.47097583E-06  1.05110102E-03
 -1.89286349E-02  7.17617568E-04  8.74876746E-03 -1.62572892E-02 -9.40706667E-04
  1.08553773E-03  4.86953670E-03 -7.54022212E-03 -4.36418094E-04 -2.70734409E-04
  1.04654176E-03 -1.89286114E-02  7.17977953E-04  8.75471960E-03  1.62476042E-02
  9.37784716E-04  1.08652921E-03  4.87173292E-03  7.53512519E-03  4.35026673E-04
 -2.70195080E-04 -2.66626772E-04  1.04598472E-03 -1.02208006E-06  2.43489820E-06
  9.40283880E-06  1.60587168E-02  1.25075536E-06  2.15810344E-06  4.64777176E-06
  7.44782444E-03  6.84412951E-07 -7.19811993E-08 -6.46430357E-04  6.46497615E-04
  6.38755299E-04 -9.64895043E-08  2.56030170E-07  2.49622746E-06  1.29946344E-06
  1.60669720E-02  1.48562186E-07  1.24186669E-06  5.95455719E-07  7.45176999E-03
  8.96934301E-10 -3.74293195E-05  3.74353805E-05  1.03463029E-07  6.39398491E-04
  4.57976305E-08 -1.68307749E-07  1.11068310E-06 -1.08689848E-03  1.87610751E-02
 -1.67335608E-07  4.89623312E-07 -5.04097797E-04  8.70127257E-03  6.56476066E-08
  7.81454164E-08 -1.34611167E-07 -4.31723035E-05  7.46608913E-04  8.74730018E-04
 -4.18808284E-02  7.75860149E-02 -2.36670063E-01  4.26424449E-05  1.68422208E-05
  9.86761236E-02 -1.35805326E-01  2.92716531E-05  8.58808693E-06  1.14014717E-02
 -5.54833849E-03 -5.54790799E-03 -3.59392199E-06 -9.00662951E-07 -9.49279407E-08
  1.87985174E-01 -1.49354142E-02  3.27936973E-02 -2.43068376E-01  5.10632606E-05
  1.71695134E-05  5.42258305E-02 -1.37818002E-01  3.29261010E-05  8.64494995E-06
  1.18799468E-02 -5.91682610E-03 -5.91587243E-03 -3.74665457E-06 -9.64725034E-07
 -1.01787934E-07  1.78321348E-01  1.75674702E-01 -5.51725046E-02  1.06180222E-01
  8.06240268E-02  1.20595824E-01  2.18520224E-01  9.90318948E-02  4.15792029E-02
  5.59288797E-02  1.01349280E-01 -4.44999394E-03 -2.95021716E-03  7.77725071E-03
  4.80032385E-03  8.69722906E-03  9.82991866E-03 -2.24589578E-02 -3.96571098E-02
  2.08710642E-01 -9.91072687E-03  2.99463797E-02  6.27929986E-02  1.02349820E-01
  1.85461786E-01  2.40319160E-02  3.42510790E-02  4.74664610E-02  8.60167016E-02
 -3.28715891E-03 -2.93156356E-03  6.17269722E-03  4.07345866E-03  7.38140119E-03
  8.34283211E-03 -3.41012544E-02 -3.92938964E-02  1.54640798E-01  1.24781192E-01
 -5.51734659E-02  1.06181804E-01  8.05976862E-02  1.28924203E-01 -2.13724684E-01
  9.90329929E-02  4.15681554E-02  5.97916669E-02 -9.91233890E-02 -4.45187253E-03
 -2.27901330E-03  7.10774313E-03  5.13020348E-03 -8.50428769E-03 -1.02783902E-02
 -2.24591906E-02 -3.96571593E-02 -2.27585540E-02 -4.18107634E-02  2.08711968E-01
 -9.91022045E-03  2.99454866E-02  6.27727850E-02  1.09417762E-01 -1.81385059E-01
  2.40304126E-02  3.42429862E-02  5.07446445E-02 -8.41247266E-02 -3.28885111E-03
 -2.36185441E-03  5.60451340E-03  4.35341347E-03 -7.21754960E-03 -8.72311613E-03
 -3.41036357E-02 -3.92957966E-02 -4.18078744E-02 -4.19474403E-02  1.54638129E-01
  1.24776621E-01 -5.51701188E-02  1.06178914E-01  8.05320634E-02 -2.49570875E-01
 -4.81260189E-03  9.90238312E-02  4.15424219E-02 -1.15749536E-01 -2.23361607E-03
 -4.45657008E-03  1.24741246E-02 -7.64050379E-03 -9.92422912E-03 -1.91722530E-04
  4.48414649E-04 -2.24556972E-02 -3.96599596E-02 -2.27582712E-02 -4.18072800E-02
 -2.27588381E-02 -4.18078757E-02  2.08710876E-01 -9.91078006E-03  2.99480645E-02
  6.27264126E-02 -2.11820141E-01 -4.08576693E-03  2.40268885E-02  3.42262092E-02
 -9.82414092E-02 -1.89641338E-03 -3.29331475E-03  1.01597696E-02 -6.91244325E-03
 -8.42364636E-03 -1.62850287E-04  3.80543647E-04 -3.41055303E-02 -3.93039093E-02
 -4.18089881E-02 -4.19467349E-02 -4.18079847E-02 -4.19455232E-02  1.54649915E-01
  1.24795211E-01
Pure Switching                             I                1
Dipole_Data                                R   N=           3
  1.81677978E-01 -1.22815554E-05 -2.00956775E-05
Quadrupole_Data                            R   N=           6
 -8.32524783E+00  1.57202968E-04 -8.40201140E+00  2.46291200E-05 -2.02510737E-05
 -8.40205562E+00
Octapole_Data                              R   N=          10
 -4.65704088E-01  3.51381844E-04  6.90937097E-01 -5.64087383E-01  1.14793457E-04
  3.40904241E-05 -3.26678029E-02  6.91209802E-01  5.63703459E-01  3.24421207E-02
Hexadecapole_Data                          R   N=          15
 -1.77333168E+01  4.42140496E-05 -5.92699492E+00 -3.31205729E-01 -1.52250150E+01
 -5.15083870E-05  3.03282787E-05 -1.91483013E-02 -1.02401408E-05 -5.92660141E+00
  3.31812410E-01 -5.07512601E+00  1.92992013E-02 -9.91421287E-05 -1.52247965E+01
