Jobname.Temp
SP        R                             6-31G(d)            
Number of atoms                            I                5
Charge                                     I                0
Multiplicity                               I                1
Number of electrons                        I               10
Number of alpha electrons                  I                5
Number of beta electrons                   I                5
Atomic numbers                             I   N=           5
           6           1           1           1           1
Current cartesian coordinates              R   N=          15
  4.72566297E-02  7.42963463E-06 -3.80321691E-06 -2.49123883E+00  3.13960795E-04
  1.16420145E-04  7.36180194E-01  9.41188445E-01  1.70531026E+00  7.35978744E-01
  1.00614043E+00 -1.66787377E+00  7.35540112E-01 -1.94768741E+00 -3.75300905E-02
Nuclear charges                            R   N=           5
  6.00000000E+00  1.00000000E+00  1.00000000E+00  1.00000000E+00  1.00000000E+00
Number of basis functions                  I               23
Number of contracted shells                I               12
Number of primitive shells                 I               27
Highest angular momentum                   I                2
Largest degree of contraction              I                6
Shell types                                I   N=          12
           0          -1          -1           2           0           0
           0           0           0           0           0           0
Number of primitives per shell             I   N=          12
           6           3           1           1           3           1
           3           1           3           1           3           1
Shell to atom map                          I   N=          12
           1           1           1           1           2           2
           3           3           4           4           5           5
Primitive exponents                        R   N=          27
  3.04752490E+03  4.57369510E+02  1.03948690E+02  2.92101550E+01  9.28666300E+00
  3.16392700E+00  7.86827240E+00  1.88128850E+00  5.44249300E-01  1.68714400E-01
  8.00000000E-01  1.87311370E+01  2.82539370E+00  6.40121700E-01  1.61277800E-01
  1.87311370E+01  2.82539370E+00  6.40121700E-01  1.61277800E-01  1.87311370E+01
  2.82539370E+00  6.40121700E-01  1.61277800E-01  1.87311370E+01  2.82539370E+00
  6.40121700E-01  1.61277800E-01
Contraction coefficients                   R   N=          27
  1.83470016E-03  1.40373012E-02  6.88426061E-02  2.32184421E-01  4.67941342E-01
  3.62312032E-01 -1.19332409E-01 -1.60854212E-01  1.14345648E+00  1.00000000E+00
  1.00000000E+00  3.34945995E-02  2.34726947E-01  8.13757318E-01  1.00000000E+00
  3.34945995E-02  2.34726947E-01  8.13757318E-01  1.00000000E+00  3.34945995E-02
  2.34726947E-01  8.13757318E-01  1.00000000E+00  3.34945995E-02  2.34726947E-01
  8.13757318E-01  1.00000000E+00
P(S=P) Contraction coefficients            R   N=          27
  0.00000000E+00  0.00000000E+00  0.00000000E+00  0.00000000E+00  0.00000000E+00
  0.00000000E+00  6.89990956E-02  3.16423980E-01  7.44308252E-01  1.00000000E+00
  0.00000000E+00  0.00000000E+00  0.00000000E+00  0.00000000E+00  0.00000000E+00
  0.00000000E+00  0.00000000E+00  0.00000000E+00  0.00000000E+00  0.00000000E+00
  0.00000000E+00  0.00000000E+00  0.00000000E+00  0.00000000E+00  0.00000000E+00
  0.00000000E+00  0.00000000E+00
Coordinates of each shell                  R   N=          36
  4.72566297E-02  7.42963463E-06 -3.80321691E-06  4.72566297E-02  7.42963463E-06
 -3.80321691E-06  4.72566297E-02  7.42963463E-06 -3.80321691E-06  4.72566297E-02
  7.42963463E-06 -3.80321691E-06 -2.49123883E+00  3.13960795E-04  1.16420145E-04
 -2.49123883E+00  3.13960795E-04  1.16420145E-04  7.36180194E-01  9.41188445E-01
  1.70531026E+00  7.36180194E-01  9.41188445E-01  1.70531026E+00  7.35978744E-01
  1.00614043E+00 -1.66787377E+00  7.35978744E-01  1.00614043E+00 -1.66787377E+00
  7.35540112E-01 -1.94768741E+00 -3.75300905E-02  7.35540112E-01 -1.94768741E+00
 -3.75300905E-02
Overlap Matrix                             R   N=         276
  1.00000000E+00  2.19058872E-01  1.00000000E+00 -2.91569301E-18  2.92027747E-18
  1.00000000E+00 -3.97242512E-22  4.74745161E-22  1.11449317E-38  1.00000000E+00
  2.79956481E-22  3.23903292E-22 -7.34631644E-39 -6.26480379E-43  1.00000000E+00
  1.84261053E-01  8.12273068E-01  0.00000000E+00  1.45803671E-21 -3.64509176E-22
  1.00000000E+00 -5.99599686E-19  0.00000000E+00  5.69754058E-01  0.00000000E+00
  0.00000000E+00  0.00000000E+00  1.00000000E+00 -7.42150977E-23  1.24713194E-21
  0.00000000E+00  5.69754058E-01 -5.07276609E-43 -6.95835169E-22  0.00000000E+00
  1.00000000E+00  4.43591648E-23 -3.11782984E-22  0.00000000E+00 -5.07276609E-43
  5.69754058E-01  0.00000000E+00  0.00000000E+00  0.00000000E+00  1.00000000E+00
  7.91027073E-02  7.10235064E-01  5.07112737E-18  6.21802944E-22  3.10901472E-22
  6.29936196E-01  0.00000000E+00  0.00000000E+00  2.19165880E-22  1.00000000E+00
  7.91027073E-02  7.10235064E-01  1.69037579E-18  1.86540883E-21  3.10901472E-22
  6.29936196E-01  0.00000000E+00  0.00000000E+00  2.19165880E-22  3.33333333E-01
  1.00000000E+00  7.91027073E-02  7.10235064E-01  1.69037579E-18  6.21802944E-22
  9.32704416E-22  6.29936196E-01  0.00000000E+00  0.00000000E+00  6.57497640E-22
  3.33333333E-01  3.33333333E-01  1.00000000E+00  5.79996017E-39  0.00000000E+00
  1.07699429E-21  2.92781675E-18  0.00000000E+00  0.00000000E+00  0.00000000E+00
  0.00000000E+00  0.00000000E+00  3.25762550E-38  3.25762550E-38  1.08587517E-38
  1.00000000E+00 -2.90316514E-39  0.00000000E+00  5.38497146E-22  0.00000000E+00
  2.92781675E-18  0.00000000E+00  3.79606439E-22  0.00000000E+00  0.00000000E+00
  0.00000000E+00  0.00000000E+00  0.00000000E+00  0.00000000E+00  1.00000000E+00
 -3.54390276E-43  1.27682505E-42  0.00000000E+00  5.38497146E-22  1.07699429E-21
  0.00000000E+00  0.00000000E+00  3.79606439E-22  0.00000000E+00  0.00000000E+00
  0.00000000E+00  0.00000000E+00  0.00000000E+00  1.88079096E-38  1.00000000E+00
  9.52728248E-03  1.42564867E-01 -2.19929041E-01  2.65571104E-05  1.04158582E-05
  2.79420687E-01 -4.69904658E-01  5.67424376E-05  2.22547248E-05  2.68599735E-01
  5.31109503E-02  5.31109476E-02 -4.50695836E-05 -1.76765613E-05  2.13449933E-09
  1.00000000E+00  6.54413360E-02  3.63905463E-01 -2.47533212E-01  2.98903993E-05
  1.17231941E-05  5.87590453E-01 -5.98863865E-01  7.23146599E-05  2.83622439E-05
  3.52598443E-01  2.61430946E-01  2.61430945E-01 -1.90677260E-05 -7.47847666E-06
  9.03049136E-10  6.58292049E-01  1.00000000E+00  3.22670405E-02  2.71611275E-01
  1.22461613E-01  1.67302371E-01  3.03133065E-01  3.75719756E-01  1.71645707E-01
  2.34495798E-01  4.24879993E-01  1.53984499E-01  1.86443963E-01  3.46076694E-01
  8.86516237E-02  1.60626764E-01  2.19442140E-01  7.17201332E-03  1.02124750E-01
  1.00000000E+00  9.18331960E-02  4.74645936E-01  8.85939302E-02  1.21033638E-01
  2.19299329E-01  7.03035538E-01  1.94457772E-01  2.65660769E-01  4.81347412E-01
  3.59069169E-01  3.66859466E-01  4.05171449E-01  2.12764606E-02  3.85505518E-02
  5.26662890E-02  1.02124750E-01  3.17965820E-01  6.58292049E-01  1.00000000E+00
  3.22688893E-02  2.71619422E-01  1.22430004E-01  1.78854236E-01 -2.96487253E-01
  3.75724947E-01  1.71597894E-01  2.50682098E-01 -4.15556535E-01  1.53968422E-01
  1.96435671E-01  3.36119786E-01  9.47457603E-02 -1.57060357E-01 -2.29444656E-01
  7.17283495E-03  1.02129465E-01  1.80275534E-02  1.47834879E-01  1.00000000E+00
  9.18346470E-02  4.74651812E-01  8.85691677E-02  1.29387979E-01 -2.14486877E-01
  7.03041419E-01  1.94402537E-01  2.83996700E-01 -4.70782260E-01  3.59068800E-01
  3.69260693E-01  4.02784070E-01  2.27384323E-02 -3.76935738E-02 -5.50653852E-02
  1.02129465E-01  3.17974870E-01  1.47834879E-01  3.99365003E-01  6.58292049E-01
  1.00000000E+00  3.22647783E-02  2.71601305E-01  1.22342697E-01 -3.46203631E-01
 -6.67031437E-03  3.75713404E-01  1.71483321E-01 -4.85261073E-01 -9.34953773E-03
  1.53907783E-01  4.15948903E-01  1.16625560E-01 -1.83277391E-01 -3.53121027E-03
  9.99256878E-03  7.17419112E-03  1.02137246E-01  1.80245548E-02  1.47825061E-01
  1.80244188E-02  1.47824615E-01  1.00000000E+00  9.18314205E-02  4.74638745E-01
  8.85102189E-02 -2.50464963E-01 -4.82571496E-03  7.03028343E-01  1.94275112E-01
 -5.49756960E-01 -1.05921817E-02  3.59046486E-01  4.21938683E-01  3.50098422E-01
 -4.39882020E-02 -8.47521832E-04  2.39830527E-03  1.02137246E-01  3.17989806E-01
  1.47825061E-01  3.99348667E-01  1.47824615E-01  3.99347926E-01  6.58292049E-01
  1.00000000E+00
Core Hamiltonian Matrix                    R   N=         276
 -1.97911613E+01 -4.06481651E+00 -6.63073549E+00 -7.49880462E-03 -5.09864074E-02
 -5.87463570E+00  1.01882172E-06  7.53085067E-06 -1.48685538E-05 -5.91890615E+00
  8.08602221E-07  5.34721034E-06 -3.13110717E-06  2.28176756E-06 -5.91890596E+00
 -3.50307663E+00 -5.31003038E+00 -4.21540338E-02  7.41957246E-06  4.24709586E-06
 -5.38090665E+00 -1.25974467E-03 -2.88700467E-02 -3.00823684E+00 -1.09863086E-05
 -2.50323767E-06 -2.19558306E-02 -3.71706483E+00  1.71159015E-07  5.36617191E-06
 -1.09863086E-05 -3.03673226E+00  1.51337209E-06  8.64511898E-06 -1.13045403E-05
 -3.72325525E+00  1.35837566E-07  2.85914580E-06 -2.50323767E-06  1.51337209E-06
 -3.03673053E+00  2.01366509E-06 -2.84268816E-06  1.29244192E-06 -3.72324842E+00
 -1.49412382E+00 -4.32775703E+00 -1.58257049E-02 -1.45649704E-05 -3.98350291E-06
 -3.69486433E+00  9.78257487E-03 -1.54627839E-05 -4.92072907E-06 -4.62215980E+00
 -1.49546059E+00 -4.36693969E+00 -5.14809888E-02  5.09641825E-02  2.94950431E-03
 -3.73185472E+00 -4.38398711E-02  4.92076821E-02  2.84709235E-03 -2.25994096E+00
 -4.70574203E+00 -1.49546061E+00 -4.36693976E+00 -5.15007976E-02 -5.09317057E-02
 -2.93317188E-03 -3.73185384E+00 -4.38584859E-02 -4.91775729E-02 -2.83456412E-03
 -2.25995350E+00 -2.27968342E+00 -4.70572945E+00 -7.55960259E-07 -2.24631695E-05
 -2.52272687E-05 -8.91676881E-02 -3.23775927E-06 -2.22831155E-05 -2.67823274E-05
 -7.59328842E-02 -3.37072179E-06 -1.96203284E-05  2.84235827E-02 -2.84631907E-02
 -3.57982287E+00 -1.50666068E-07 -4.67721956E-06 -6.89962944E-06 -3.23775927E-06
 -8.92019981E-02 -4.87494349E-06 -8.52295276E-06 -3.37072179E-06 -7.59651259E-02
 -3.98507280E-06  1.64310732E-03 -1.65153479E-03 -2.88198285E-06 -3.57986050E+00
  1.23614370E-07  3.49542442E-06 -3.23775927E-06  5.10869133E-03 -8.82163021E-02
  3.25585589E-06 -3.37072179E-06  4.93130860E-03 -8.51780549E-02 -1.66391357E-06
  1.62665520E-06  9.18288610E-06  2.84594535E-03 -4.92996924E-02 -3.63905027E+00
 -1.83248767E-01 -8.66296160E-01  1.18306304E+00 -1.42166350E-04 -5.58520691E-05
 -1.30857683E+00  1.90533144E+00 -2.29085687E-04 -9.00393183E-05 -1.39885064E+00
 -3.68197692E-01 -3.68197405E-01  2.14428165E-04  8.42858614E-05  7.20409991E-08
 -3.41695369E+00 -1.24533464E+00 -2.31061844E+00  1.29498815E+00 -1.53155648E-04
 -6.01617969E-05 -2.80391396E+00  2.10986381E+00 -2.48704915E-04 -9.87858245E-05
 -1.97150170E+00 -1.54784869E+00 -1.54784656E+00  8.39944557E-05  3.39797578E-05
  1.15417623E-06 -2.56062494E+00 -3.45845250E+00 -6.17339675E-01 -1.72525666E+00
 -6.86811571E-01 -9.33580935E-01 -1.69154397E+00 -1.97356940E+00 -7.56460464E-01
 -1.03058206E+00 -1.86729906E+00 -9.79433534E-01 -1.13273546E+00 -1.88641371E+00
 -4.20420245E-01 -7.61752510E-01 -1.03605708E+00 -5.79511836E-02 -5.77046023E-01
 -4.01791658E+00 -1.74763931E+00 -3.05683730E+00 -4.94189455E-01 -6.49895489E-01
 -1.17754054E+00 -3.48207485E+00 -7.06755858E-01 -9.51356080E-01 -1.72375461E+00
 -2.10782379E+00 -2.16119799E+00 -2.36071562E+00 -1.13491822E-01 -2.05619508E-01
 -2.74267770E-01 -5.10384023E-01 -1.50319828E+00 -2.94407266E+00 -3.87468677E+00
 -6.17374954E-01 -1.72531307E+00 -6.86636574E-01 -9.98045106E-01  1.65446328E+00
 -1.97360919E+00 -7.56253329E-01 -1.10172397E+00  1.82633174E+00 -9.79366371E-01
 -1.17991879E+00 -1.83941363E+00 -4.49321372E-01  7.44839528E-01  1.08328279E+00
 -5.79571155E-02 -5.77073446E-01 -1.45092962E-01 -8.23921134E-01 -4.01795381E+00
 -1.74766693E+00 -3.05687701E+00 -4.94056543E-01 -6.94755723E-01  1.15170431E+00
 -3.48210991E+00 -7.06557249E-01 -1.01702025E+00  1.68592226E+00 -2.10782478E+00
 -2.17370638E+00 -2.34828862E+00 -1.21291159E-01  2.01047068E-01  2.86766307E-01
 -5.10405291E-01 -1.50323629E+00 -8.23915615E-01 -1.93447014E+00 -2.94409579E+00
 -3.87470932E+00 -6.17296549E-01 -1.72518889E+00 -6.86145297E-01  1.93188428E+00
  3.72218046E-02 -1.97352271E+00 -7.55742178E-01  2.13265955E+00  4.10899916E-02
 -9.79058988E-01 -2.21629596E+00 -8.03089124E-01  8.69172995E-01  1.67461541E-02
 -4.71783773E-02 -5.79654936E-02 -5.77099751E-01 -1.45070683E-01 -8.23859762E-01
 -1.45070932E-01 -8.23859384E-01 -4.01787652E+00 -1.74760554E+00 -3.05678993E+00
 -4.93736672E-01  1.34489204E+00  2.59134151E-02 -3.48203515E+00 -7.06096126E-01
  1.96874381E+00  3.79319833E-02 -2.10770115E+00 -2.44803126E+00 -2.07390748E+00
  2.34615420E-01  4.51840593E-03 -1.24890357E-02 -5.10437490E-01 -1.50327942E+00
 -8.23865945E-01 -1.93439594E+00 -8.23871085E-01 -1.93440042E+00 -2.94404797E+00
 -3.87466476E+00
Number of independent functions            I               23
Alpha MO coefficients                      R   N=         529
  9.92897682E-01  4.89408782E-02  8.77725815E-05  1.32749299E-07  7.97504022E-09
 -1.35995801E-02 -3.89407546E-04  3.46446666E-08  2.28508418E-08 -9.33419191E-03
 -9.11042176E-03 -9.11025593E-03  1.28454124E-07  1.05463300E-08 -2.47437779E-08
  4.39695296E-05  1.66009009E-03 -2.04123149E-04  2.58830481E-03 -2.04146119E-04
  2.58835507E-03 -2.03917189E-04  2.58812994E-03 -1.97861367E-01  3.81043316E-01
  4.60031498E-02 -1.79430265E-06 -5.03785620E-06  3.78953918E-01  1.06630508E-02
  8.81261320E-07 -1.76557638E-06 -4.75863035E-03  2.55654160E-03  2.55728176E-03
  3.69737591E-06  3.13515536E-07 -2.92688464E-07  8.34216690E-02  3.20498251E-02
  1.43700596E-01  4.17647845E-02  1.43704098E-01  4.17647435E-02  1.43693522E-01
  4.17623264E-02  1.95145852E-06 -5.04424280E-06  5.29845620E-05  2.40861087E-01
 -3.80390527E-01 -4.94535196E-06  2.60450148E-05  1.10538217E-01 -1.74573096E-01
  2.00025147E-07 -8.79040904E-03  8.78999883E-03  9.86862849E-03 -1.55928389E-02
 -1.82811744E-02 -2.57421945E-05 -2.26531745E-05 -1.33787183E-01 -1.13685528E-01
  2.77999201E-01  2.36221463E-01 -1.44200284E-01 -1.22533934E-01  2.78418872E-06
 -6.56768311E-06  1.48338500E-04  3.80386083E-01  2.40862161E-01 -8.45923289E-06
  7.09981298E-05  1.74570044E-01  1.10543080E-01  2.62952276E-06 -1.58361122E-02
  1.58336637E-02  1.55875789E-02  9.87484568E-03  1.01453579E-02 -5.33588683E-05
 -4.96055465E-05  2.43767673E-01  2.07137800E-01 -6.00011415E-03 -5.09711916E-03
 -2.37732821E-01 -2.02017280E-01 -1.12111348E-02  1.53871405E-02 -4.10150326E-01
  1.51003415E-04  3.53402981E-05  5.92822360E-02 -2.39235203E-01  8.31397999E-05
  1.71468634E-05  1.91746109E-02 -9.79664672E-03 -9.78913579E-03 -1.87178149E-06
 -6.61416205E-07  1.65218671E-07  2.90863307E-01  3.06139507E-01 -8.00932215E-02
 -6.85199119E-02 -8.01041555E-02 -6.85320743E-02 -8.01762914E-02 -6.86044126E-02
 -1.31490038E-01  1.88405189E-01 -2.87793063E-01  4.79286801E-05  2.11715408E-05
  1.57728570E+00 -5.57794552E-01  1.01231673E-04  4.40019626E-05 -2.83442501E-02
 -3.00711840E-03 -3.00803505E-03  2.44142484E-06  1.72527224E-06 -5.06219242E-07
 -1.65546713E-01 -1.27620309E+00 -7.05724092E-03 -4.34250564E-01 -7.05098482E-03
 -4.34225894E-01 -7.04012077E-03 -4.34192006E-01  1.00515271E-01 -1.12217938E-01
 -3.22491123E-01  1.11711722E-04  6.79644298E-06 -1.82719310E+00 -9.09202484E-01
  3.38988573E-04  2.20210674E-05 -8.91390848E-03  1.57468408E-02  1.57418706E-02
  5.61728266E-07  2.12982908E-06 -1.55880837E-08 -1.15618327E-01 -5.69933284E-01
  3.83278010E-02  1.08569591E+00  3.83257354E-02  1.08563650E+00  3.83672460E-02
  1.08600773E+00 -1.08626153E-05  1.02069894E-05  1.25571967E-04  3.70670729E-01
  1.28385203E-01  2.59198073E-04  4.18570241E-04  1.27188034E+00  4.40508817E-01
 -1.58756387E-06  1.33538576E-02 -1.33561777E-02 -5.74153111E-03 -1.99152349E-03
 -4.36161144E-03  1.15157305E-05  1.51780789E-04 -8.76149086E-02 -1.30831515E+00
 -2.45086257E-02 -3.66132797E-01  1.12115953E-01  1.67395348E+00  7.87158482E-06
 -7.41544121E-06 -2.33051744E-05 -1.28388457E-01  3.70675110E-01 -1.83001871E-04
 -7.20816107E-05 -4.40529026E-01  1.27187096E+00 -2.32904901E-07 -3.77683658E-03
  3.77929425E-03  1.98793943E-03 -5.74861024E-03 -1.54192119E-02 -6.08210378E-06
 -3.89019685E-05 -7.88901204E-02 -1.17775377E+00  1.15319955E-01  1.72193928E+00
 -3.64262505E-02 -5.43897621E-01 -1.40324414E-06 -9.75120320E-06  2.13763758E-05
 -5.90778029E-02  7.62475060E-01  4.42025512E-05 -4.76995569E-05  1.13935553E-01
 -1.47023714E+00  5.13518400E-06  1.41225918E-03 -1.41819972E-03 -4.35870128E-03
  5.63379291E-02  8.32784404E-02  1.36927618E-06 -1.04296326E-05  3.84223311E-01
  1.98920432E-01 -4.10925079E-01 -2.12774115E-01  2.66852383E-02  1.38299111E-02
 -1.17974449E-06 -2.44804116E-05 -4.00381165E-05 -7.62492705E-01 -5.90864571E-02
  7.58280414E-05  2.00633032E-04  1.47027892E+00  1.13904346E-01 -2.78024219E-05
  7.21489750E-02 -7.21330724E-02 -5.63073084E-02 -4.36900021E-03 -1.62637710E-03
 -4.69382284E-05  6.20951305E-05 -2.52644515E-01 -1.30849947E-01 -2.06419435E-01
 -1.06942934E-01  4.59078084E-01  2.37701953E-01 -2.38523458E-02 -6.30296747E-02
 -9.40033530E-01  9.74081252E-05  3.11731951E-05  4.99552399E-01  1.52006406E+00
 -5.84000554E-05 -3.76108505E-05  1.02911895E-01 -5.14495642E-02 -5.14671452E-02
 -3.18415631E-05 -1.18533675E-05 -1.21187385E-06  3.11127178E-01  2.77197842E-01
 -1.87840276E-01 -2.10246192E-01 -1.87826730E-01 -2.10218062E-01 -1.87769849E-01
 -2.10096910E-01  2.77906206E-02 -4.67049682E-01  4.04820532E-01 -9.53781013E-05
 -3.23222950E-05  8.47996001E-01 -6.94251297E-01  1.71086061E-04  5.66017071E-05
  1.43626853E-01 -8.40512254E-02 -8.40528440E-02 -3.05625483E-05 -1.23199753E-05
  8.16779481E-07  1.14275797E+00 -1.66073169E+00  9.23603707E-03  7.65598824E-02
  9.22329212E-03  7.66006123E-02  9.20879048E-03  7.66855773E-02 -3.01702544E-05
  1.89299656E-04 -1.87488460E-05 -7.79626114E-01 -3.26306940E-01 -2.54379773E-04
  7.67661672E-05  1.11905885E+00  4.68379647E-01  7.40717276E-05 -1.38193969E-01
  1.38122458E-01  1.02918990E-01  4.31047674E-02  5.61650635E-02 -7.12814015E-05
 -4.61978385E-05  6.60263349E-01 -1.26149566E+00  1.22747856E-01 -2.34699856E-01
 -7.83739384E-01  1.49686458E+00 -2.51307768E-05  1.59531570E-04  1.11992403E-04
 -3.26311708E-01  7.79641360E-01 -2.12802276E-04 -1.21790716E-04  4.68383438E-01
 -1.11909515E+00  4.01465744E-05 -4.86836603E-02  4.86470984E-02  4.30683477E-02
 -1.02971540E-01 -1.59495541E-01 -2.74022749E-05 -7.63428248E-05 -5.23564026E-01
  9.99952803E-01  8.33482247E-01 -1.59237665E+00 -3.10545686E-01  5.93010830E-01
  9.01697751E-02 -4.53069925E-01 -4.49347832E-01 -3.05578640E-04  1.47375133E-04
  5.26400740E-01  4.95333933E-01  4.65172707E-04 -1.96344875E-04 -1.28054937E-01
  6.06793122E-02  6.07846454E-02  9.63521786E-05  1.78192787E-06 -3.22471143E-05
  1.21274493E-01  2.95729072E-01  7.28371564E-01 -6.26419189E-01  7.28582440E-01
 -6.26824369E-01  7.27946730E-01 -6.25593103E-01  7.71110983E-02  2.06086132E+00
 -1.98243444E-02 -6.89525579E-06 -3.83936467E-06 -5.00054418E+00 -2.52819323E-01
  7.42681515E-05  3.29225258E-05  1.37417515E-01  1.09450720E-01  1.09396832E-01
  1.15405580E-05  7.71234282E-06 -7.09786052E-07  3.96585598E-01  4.31264229E-01
  1.67780603E-01  1.11324181E+00  1.67759363E-01  1.11330377E+00  1.67812169E-01
  1.11322138E+00  6.68772740E-06  8.53891081E-05 -7.86645880E-06  8.51158856E-03
  8.37282787E-04 -2.27942648E-04  8.73726879E-06  5.84566340E-03  5.72823570E-04
 -2.41985531E-04 -5.06512076E-01  5.06761024E-01 -8.06746705E-01 -7.92723116E-02
  2.36201132E-02  5.23837777E-05  2.15560233E-05 -7.97524309E-03  2.35220862E-03
 -6.05115833E-03  1.79473461E-03  1.41193560E-02 -4.02744806E-03 -1.67039769E-06
 -1.51779285E-05  2.59941645E-06  8.36164900E-04 -8.50703451E-03  4.61483776E-05
  1.69415075E-06  5.74723488E-04 -5.83552479E-03  5.77017684E-05 -2.03862850E-02
  2.03264902E-02 -7.93441305E-02  8.06554119E-01 -5.85273978E-01 -6.79694636E-06
 -4.54060733E-06  1.16200220E-02 -3.36578099E-03 -1.27484968E-02  3.67099109E-03
  1.10349122E-03 -3.28468337E-04  2.97718445E-02  3.89549112E-03  2.98959121E-03
  2.01546992E-06  1.69204621E-06 -4.42015467E-01 -3.98627303E-01  3.38259697E-05
  3.39122526E-06  1.07347731E+00 -5.06184079E-01 -5.06157997E-01 -2.98042909E-04
 -1.21343444E-04 -2.09538020E-05 -4.78573463E-01  9.41884966E-02  3.14539551E-01
  5.27748364E-02  3.14513051E-01  5.27688736E-02  3.14540708E-01  5.27197195E-02
 -2.21464820E-06  2.71110226E-05  2.86987571E-05  1.45205821E-01  1.88168403E-02
  6.06668880E-07  1.14827003E-04  4.28081188E-01  5.54720993E-02  1.81546739E-04
 -7.92091070E-01  7.91901717E-01  6.55259532E-01  8.50060497E-02  6.51027235E-02
  1.20904258E-06  2.93075919E-05 -4.59383832E-01  5.12704747E-02 -3.12270907E-01
  3.48374179E-02  7.71608545E-01 -8.61272221E-02 -2.06575415E-06  9.40431225E-06
 -2.19791198E-07  1.88251380E-02 -1.45225412E-01  2.12196970E-05 -5.93861756E-06
  5.54879518E-02 -4.28063371E-01 -7.23296047E-05 -5.64344171E-02  5.65025576E-02
  8.48851013E-02 -6.55567978E-01 -9.14318039E-01  1.27391108E-05 -6.48361665E-06
  6.25777004E-01 -6.98613976E-02 -7.10755019E-01  7.93349433E-02  8.49255413E-02
 -9.47676635E-03  4.85058904E-01 -2.94664385E+00  2.68653722E-02 -3.16690659E-06
 -3.83677617E-06 -2.29071129E+00 -6.95081640E-02  2.39614814E-05  7.50187359E-06
  1.82995800E+00  1.88842087E+00  1.88843477E+00  1.33636755E-05  1.55892221E-06
 -2.69565373E-06 -1.13911461E-02  2.92371877E-01 -1.40229601E-01  5.04658738E-01
 -1.40238844E-01  5.04673399E-01 -1.40213688E-01  5.04654177E-01
Alpha Orbital Energies                     R   N=          23
 -1.01909693E+01 -6.78914410E-01 -3.93243228E-01 -3.93239661E-01 -3.53073082E-01
  7.82329755E-02  1.38484640E-01  1.75719589E-01  1.75729477E-01  5.30230787E-01
  5.30240578E-01  5.91080365E-01  7.80855539E-01  8.93188785E-01  8.93202938E-01
  9.15737716E-01  1.08098814E+00  1.66312785E+00  1.66313515E+00  2.03408809E+00
  2.24268382E+00  2.24272246E+00  4.14613075E+00
Total SCF Density                          R   N=         276
  2.05024123E+00 -5.39459486E-02  2.95651965E-01 -8.83369166E-03  2.24448930E-02
  3.40679224E-01  6.46014136E-07 -4.13383292E-06  1.43423773E-05  4.05415317E-01
  1.07360010E-06 -2.07717833E-06  1.69543009E-06 -1.31286540E-06  4.05423070E-01
 -1.78295906E-01  2.89288932E-01 -1.37654995E-02  7.72227884E-06  5.89680234E-08
  2.94610808E-01  3.71301394E-04  7.25760004E-04  1.97225816E-01 -5.72917205E-06
 -2.62975865E-06 -2.02725957E-02  1.14694681E-01 -7.40627545E-07 -1.74648547E-07
 -4.61398921E-06  1.86056766E-01 -7.39293214E-07  6.47764094E-06 -9.21493470E-06
  8.53868091E-02  2.93785502E-07 -5.06448767E-07  6.82081977E-08  2.37275637E-06
  1.86063195E-01  5.50674588E-07 -1.63875113E-06  1.02617983E-06  8.53910773E-02
 -1.70826351E-02 -3.95005084E-03 -1.61684076E-02  7.90228637E-06  2.51760037E-06
 -1.07929347E-03 -9.26869693E-03  4.14160533E-06  1.18545881E-06  9.54874824E-04
 -1.88835744E-02  7.55374031E-04  8.26418460E-03 -1.62851786E-02 -9.41782118E-04
  1.02423935E-03  4.74631538E-03 -7.47399900E-03 -4.32352828E-04 -2.30035001E-04
  1.02712744E-03 -1.88834614E-02  7.55592115E-04  8.26935019E-03  1.62771800E-02
  9.39478547E-04  1.02497665E-03  4.74815003E-03  7.46980448E-03  4.31264163E-04
 -2.29583516E-04 -2.85149170E-04  1.02666524E-03 -1.04076855E-06  2.46838327E-06
  7.54587408E-06  1.66125328E-02  1.05012735E-06  2.21552394E-06  3.70177767E-06
  7.62396955E-03  6.03847002E-07 -2.34445501E-08 -6.67138621E-04  6.67160647E-04
  6.80724923E-04 -9.41626080E-08  2.47202100E-07  1.84868753E-06  1.09129867E-06
  1.66196897E-02  1.46065481E-07  9.13105645E-07  4.95164598E-07  7.62737200E-03
  1.71488544E-08 -3.86090954E-05  3.86022619E-05  9.00092856E-08  6.81298404E-04
  4.81260974E-08 -1.69225071E-07  9.10191818E-07 -1.08814110E-03  1.87952368E-02
 -1.92399013E-07  4.03061086E-07 -4.99385662E-04  8.62580066E-03  5.56250363E-08
  6.76648582E-08 -1.10912081E-07 -4.45371056E-05  7.70478501E-04  8.74259251E-04
 -3.94463523E-02  7.25299527E-02 -2.30920052E-01  3.45488218E-05  1.35977691E-05
  9.77107962E-02 -1.37390469E-01  2.41909573E-05  6.87109598E-06  1.03596146E-02
 -5.27108678E-03 -5.27087882E-03 -2.64352272E-06 -5.83487901E-07 -9.42177377E-08
  1.83121287E-01 -1.62505881E-02  3.40084599E-02 -2.48177377E-01  4.36905931E-05
  1.46531322E-05  6.05429306E-02 -1.45796498E-01  2.86339904E-05  7.32773742E-06
  1.14041939E-02 -5.86268664E-03 -5.86197836E-03 -2.90219780E-06 -6.58079646E-07
 -9.59622403E-08  1.83436951E-01  1.89502696E-01 -5.54742327E-02  1.07025660E-01
  7.89799890E-02  1.20978704E-01  2.19204462E-01  9.94183485E-02  4.14146139E-02
  5.55188089E-02  1.00601690E-01 -4.43410964E-03 -3.06081395E-03  7.67426427E-03
  4.96026608E-03  8.98677633E-03  9.83768366E-03 -2.26360157E-02 -3.98470415E-02
  2.08773032E-01 -9.85034935E-03  2.99715068E-02  6.00994119E-02  1.02798991E-01
  1.86267848E-01  2.34570505E-02  3.36969053E-02  4.71755988E-02  8.54856729E-02
 -3.07244724E-03 -3.05291385E-03  6.06885908E-03  4.21427913E-03  7.63638474E-03
  8.35953695E-03 -3.29077049E-02 -3.92830021E-02  1.54384485E-01  1.24552885E-01
 -5.54752025E-02  1.07027116E-01  7.89588166E-02  1.29328952E-01 -2.14394036E-01
  9.94198595E-02  4.14059041E-02  5.93511253E-02 -9.83921590E-02 -4.43571066E-03
 -2.38942147E-03  7.00422202E-03  5.30124965E-03 -8.78789784E-03 -1.02861610E-02
 -2.26363380E-02 -3.98473886E-02 -2.31783153E-02 -4.27147289E-02  2.08774285E-01
 -9.84977677E-03  2.99703639E-02  6.00834990E-02  1.09894524E-01 -1.82173485E-01
  2.34557059E-02  3.36908138E-02  5.04320684E-02 -8.36052242E-02 -3.07389038E-03
 -2.48237583E-03  5.49954747E-03  4.50402629E-03 -7.46727606E-03 -8.74028295E-03
 -3.29101524E-02 -3.92852483E-02 -4.27117442E-02 -4.29279223E-02  1.54381803E-01
  1.24548398E-01 -5.54718833E-02  1.07024162E-01  7.89035268E-02 -2.50349717E-01
 -4.82395311E-03  9.94113811E-02  4.13852956E-02 -1.14894421E-01 -2.21571387E-03
 -4.43976822E-03  1.23740363E-02 -7.75504543E-03 -1.02561136E-02 -1.97970113E-04
  4.48421347E-04 -2.26335992E-02 -3.98501143E-02 -2.31779262E-02 -4.27109892E-02
 -2.31785920E-02 -4.27120134E-02  2.08773447E-01 -9.85014206E-03  2.99724796E-02
  6.00461771E-02 -2.12737305E-01 -4.10041176E-03  2.34521832E-02  3.36787246E-02
 -9.76330297E-02 -1.88346862E-03 -3.07781642E-03  1.00631462E-02 -7.04189879E-03
 -8.71583801E-03 -1.68358166E-04  3.81005956E-04 -3.29131517E-02 -3.92939046E-02
 -4.27126424E-02 -4.29268365E-02 -4.27116428E-02 -4.29258889E-02  1.54392923E-01
  1.24565804E-01
Pure Switching                             I                1
Dipole_Data                                R   N=           3
  2.37468852E-01 -1.43138653E-05 -1.90845951E-05
Quadrupole_Data                            R   N=           6
 -8.34786481E+00  1.52710849E-04 -8.43430289E+00  2.44864642E-05 -2.09562168E-05
 -8.43435402E+00
Octapole_Data                              R   N=          10
 -3.68980251E-01  2.97359551E-04  7.73235198E-01 -5.68052073E-01  9.47408946E-05
  2.80121668E-05 -3.28756466E-02  7.73467347E-01  5.67703852E-01  3.26723702E-02
Hexadecapole_Data                          R   N=          15
 -1.85509140E+01  7.23724438E-05 -6.11765275E+00 -3.36053577E-01 -1.52542726E+01
 -3.93848608E-05  2.32838170E-05 -1.94197084E-02 -1.66467991E-05 -6.11730599E+00
  3.36624200E-01 -5.08485069E+00  1.95599384E-02 -8.70988529E-05 -1.52540409E+01
