Jobname.Temp
SP        R                             6-31G(d)            
Number of atoms                            I                5
Charge                                     I                0
Multiplicity                               I                1
Number of electrons                        I               10
Number of alpha electrons                  I                5
Number of beta electrons                   I                5
Atomic numbers                             I   N=           5
           6           1           1           1           1
Current cartesian coordinates              R   N=          15
  1.89107396E-02  7.00071772E-06 -3.92618091E-06 -2.23612568E+00  7.38624520E-04
  2.77713640E-04  7.08158187E-01  9.40946033E-01  1.70531280E+00  7.07708497E-01
  1.00609910E+00 -1.66786734E+00  7.06794562E-01 -1.94782576E+00 -3.76996238E-02
Nuclear charges                            R   N=           5
  6.00000000E+00  1.00000000E+00  1.00000000E+00  1.00000000E+00  1.00000000E+00
Number of basis functions                  I               23
Number of contracted shells                I               12
Number of primitive shells                 I               27
Highest angular momentum                   I                2
Largest degree of contraction              I                6
Shell types                                I   N=          12
           0          -1          -1           2           0           0
           0           0           0           0           0           0
Number of primitives per shell             I   N=          12
           6           3           1           1           3           1
           3           1           3           1           3           1
Shell to atom map                          I   N=          12
           1           1           1           1           2           2
           3           3           4           4           5           5
Primitive exponents                        R   N=          27
  3.04752490E+03  4.57369510E+02  1.03948690E+02  2.92101550E+01  9.28666300E+00
  3.16392700E+00  7.86827240E+00  1.88128850E+00  5.44249300E-01  1.68714400E-01
  8.00000000E-01  1.87311370E+01  2.82539370E+00  6.40121700E-01  1.61277800E-01
  1.87311370E+01  2.82539370E+00  6.40121700E-01  1.61277800E-01  1.87311370E+01
  2.82539370E+00  6.40121700E-01  1.61277800E-01  1.87311370E+01  2.82539370E+00
  6.40121700E-01  1.61277800E-01
Contraction coefficients                   R   N=          27
  1.83470016E-03  1.40373012E-02  6.88426061E-02  2.32184421E-01  4.67941342E-01
  3.62312032E-01 -1.19332409E-01 -1.60854212E-01  1.14345648E+00  1.00000000E+00
  1.00000000E+00  3.34945995E-02  2.34726947E-01  8.13757318E-01  1.00000000E+00
  3.34945995E-02  2.34726947E-01  8.13757318E-01  1.00000000E+00  3.34945995E-02
  2.34726947E-01  8.13757318E-01  1.00000000E+00  3.34945995E-02  2.34726947E-01
  8.13757318E-01  1.00000000E+00
P(S=P) Contraction coefficients            R   N=          27
  0.00000000E+00  0.00000000E+00  0.00000000E+00  0.00000000E+00  0.00000000E+00
  0.00000000E+00  6.89990956E-02  3.16423980E-01  7.44308252E-01  1.00000000E+00
  0.00000000E+00  0.00000000E+00  0.00000000E+00  0.00000000E+00  0.00000000E+00
  0.00000000E+00  0.00000000E+00  0.00000000E+00  0.00000000E+00  0.00000000E+00
  0.00000000E+00  0.00000000E+00  0.00000000E+00  0.00000000E+00  0.00000000E+00
  0.00000000E+00  0.00000000E+00
Coordinates of each shell                  R   N=          36
  1.89107396E-02  7.00071772E-06 -3.92618091E-06  1.89107396E-02  7.00071772E-06
 -3.92618091E-06  1.89107396E-02  7.00071772E-06 -3.92618091E-06  1.89107396E-02
  7.00071772E-06 -3.92618091E-06 -2.23612568E+00  7.38624520E-04  2.77713640E-04
 -2.23612568E+00  7.38624520E-04  2.77713640E-04  7.08158187E-01  9.40946033E-01
  1.70531280E+00  7.08158187E-01  9.40946033E-01  1.70531280E+00  7.07708497E-01
  1.00609910E+00 -1.66786734E+00  7.07708497E-01  1.00609910E+00 -1.66786734E+00
  7.06794562E-01 -1.94782576E+00 -3.76996238E-02  7.06794562E-01 -1.94782576E+00
 -3.76996238E-02
Overlap Matrix                             R   N=         276
  1.00000000E+00  2.19058872E-01  1.00000000E+00 -2.07836557E-18  1.46013874E-18
  1.00000000E+00  4.94387174E-23  4.35618589E-22  5.13212726E-39  1.00000000E+00
  3.79746146E-22 -4.74745161E-22 -5.57246584E-39 -1.25296076E-42  1.00000000E+00
  1.84261053E-01  8.12273068E-01  1.02099174E-18  0.00000000E+00  0.00000000E+00
  1.00000000E+00 -4.81504474E-19 -1.34601576E-19  5.69754058E-01  0.00000000E+00
  0.00000000E+00  0.00000000E+00  1.00000000E+00 -4.53763068E-23  0.00000000E+00
  0.00000000E+00  5.69754058E-01  0.00000000E+00  0.00000000E+00  0.00000000E+00
  1.00000000E+00  1.17554803E-22  0.00000000E+00  0.00000000E+00  0.00000000E+00
  5.69754058E-01  0.00000000E+00  0.00000000E+00  0.00000000E+00  1.00000000E+00
  7.91027073E-02  7.10235064E-01  2.53556369E-18  2.21733807E-22  1.53891061E-23
  6.29936196E-01  0.00000000E+00  0.00000000E+00  0.00000000E+00  1.00000000E+00
  7.91027073E-02  7.10235064E-01  8.45187896E-19  6.65201421E-22  1.53891061E-23
  6.29936196E-01  0.00000000E+00  0.00000000E+00  0.00000000E+00  3.33333333E-01
  1.00000000E+00  7.91027073E-02  7.10235064E-01  8.45187896E-19  2.21733807E-22
  4.61673183E-23  6.29936196E-01  0.00000000E+00  0.00000000E+00  0.00000000E+00
  3.33333333E-01  3.33333333E-01  1.00000000E+00  2.50062102E-39 -1.32413323E-39
  3.84054220E-22  1.46390838E-18  0.00000000E+00  0.00000000E+00  0.00000000E+00
  0.00000000E+00  0.00000000E+00  0.00000000E+00  0.00000000E+00  0.00000000E+00
  1.00000000E+00  0.00000000E+00  4.94244833E-40  2.66547136E-23  0.00000000E+00
  1.46390838E-18  0.00000000E+00  0.00000000E+00  0.00000000E+00  0.00000000E+00
  0.00000000E+00  0.00000000E+00  0.00000000E+00  0.00000000E+00  1.00000000E+00
  0.00000000E+00  0.00000000E+00  0.00000000E+00  2.66547136E-23  3.84054220E-22
  0.00000000E+00  0.00000000E+00  0.00000000E+00  0.00000000E+00  0.00000000E+00
  0.00000000E+00  0.00000000E+00  0.00000000E+00  0.00000000E+00  1.00000000E+00
  2.03764698E-02  2.13284397E-01 -3.04940382E-01  9.89348284E-05  3.80851296E-05
  3.36179114E-01 -5.02528997E-01  1.63040460E-04  6.27627010E-05  3.75957444E-01
  8.66858011E-02  8.66857751E-02 -1.62555175E-04 -6.25758899E-05  2.03021157E-08
  1.00000000E+00  8.08646303E-02  4.29607234E-01 -2.61371169E-01  8.47992372E-05
  3.26436099E-05  6.57253044E-01 -5.95063284E-01  1.93062275E-04  7.43196496E-05
  4.00070622E-01  3.13733398E-01  3.13733390E-01 -4.85168973E-05 -1.86766617E-05
  6.05945435E-09  6.58292049E-01  1.00000000E+00  3.22670405E-02  2.71611275E-01
  1.22519186E-01  1.67259356E-01  3.03133538E-01  3.75719756E-01  1.71726403E-01
  2.34435508E-01  4.24880656E-01  1.54019734E-01  1.86408012E-01  3.46077411E-01
  8.86704979E-02  1.60702530E-01  2.19386062E-01  1.26726838E-02  1.28389072E-01
  1.00000000E+00  9.18331960E-02  4.74645936E-01  8.86355808E-02  1.21002519E-01
  2.19299671E-01  7.03035538E-01  1.94549193E-01  2.65592466E-01  4.81348163E-01
  3.59077625E-01  3.66850838E-01  4.05171621E-01  2.12809904E-02  3.85687358E-02
  5.26528303E-02  1.28389072E-01  3.66133950E-01  6.58292049E-01  1.00000000E+00
  3.22688893E-02  2.71619422E-01  1.22443451E-01  1.78846965E-01 -2.96486087E-01
  3.75724947E-01  1.71616741E-01  2.50671906E-01 -4.15554900E-01  1.53976648E-01
  1.96429174E-01  3.36118058E-01  9.47523141E-02 -1.57076989E-01 -2.29434425E-01
  1.26740277E-02  1.28394531E-01  1.80275534E-02  1.47834879E-01  1.00000000E+00
  9.18346470E-02  4.74651812E-01  8.85788953E-02  1.29382719E-01 -2.14486033E-01
  7.03041419E-01  1.94423888E-01  2.83985154E-01 -4.70780407E-01  3.59070774E-01
  3.69259134E-01  4.02783655E-01  2.27400052E-02 -3.76975654E-02 -5.50629298E-02
  1.28394531E-01  3.66143542E-01  1.47834879E-01  3.99365003E-01  6.58292049E-01
  1.00000000E+00  3.22647783E-02  2.71601305E-01  1.22271658E-01 -3.46228146E-01
 -6.70042714E-03  3.75713404E-01  1.71383748E-01 -4.85295435E-01 -9.39174570E-03
  1.53864370E-01  4.15991311E-01  1.16626566E-01 -1.83183940E-01 -3.54509203E-03
  1.00383904E-02  1.26760644E-02  1.28402804E-01  1.80245548E-02  1.47825061E-01
  1.80244188E-02  1.47824615E-01  1.00000000E+00  9.18314205E-02  4.74638745E-01
  8.84588244E-02 -2.50482699E-01 -4.84750039E-03  7.03028343E-01  1.94162304E-01
 -5.49795888E-01 -1.06399995E-02  3.59036067E-01  4.21948861E-01  3.50098663E-01
 -4.39657727E-02 -8.50853579E-04  2.40930288E-03  1.28402804E-01  3.66158076E-01
  1.47825061E-01  3.99348667E-01  1.47824615E-01  3.99347926E-01  6.58292049E-01
  1.00000000E+00
Core Hamiltonian Matrix                    R   N=         276
 -1.98406790E+01 -4.07566380E+00 -6.67983740E+00 -3.56656882E-03 -2.35971298E-02
 -5.93888272E+00  1.27042858E-06  9.02976355E-06 -1.63089922E-05 -5.95980020E+00
  8.98907646E-07  5.87970961E-06 -3.64700868E-06  2.28329944E-06 -5.95980002E+00
 -3.51220081E+00 -5.34829624E+00 -1.85123452E-02  8.33535514E-06  4.56289619E-06
 -5.41665392E+00 -5.99153891E-04 -1.24206132E-02 -3.04384326E+00 -1.13983685E-05
 -2.63698094E-06 -7.68113831E-03 -3.74250347E+00  2.13425924E-07  5.90968045E-06
 -1.13983685E-05 -3.05571957E+00  1.51440743E-06  8.48589793E-06 -1.05510303E-05
 -3.74248574E+00  1.51007754E-07  3.04322977E-06 -2.63698094E-06  1.51440743E-06
 -3.05571785E+00  1.93352379E-06 -2.54713835E-06  1.29333698E-06 -3.74247892E+00
 -1.49848537E+00 -4.37614971E+00  3.12971004E-02 -4.20403004E-05 -1.44900425E-05
 -3.73803284E+00  4.41430726E-02 -4.30682415E-05 -1.54680705E-05 -4.70725418E+00
 -1.49915529E+00 -4.39494989E+00 -4.29016033E-02  5.09867694E-02  2.96153345E-03
 -3.75464460E+00 -3.86010679E-02  4.92288693E-02  2.85863256E-03 -2.27618466E+00
 -4.74122199E+00 -1.49915531E+00 -4.39494996E+00 -4.29426371E-02 -5.09234668E-02
 -2.93350840E-03 -3.75464372E+00 -3.86401771E-02 -4.91698251E-02 -2.83511301E-03
 -2.27621088E+00 -2.29149907E+00 -4.74119575E+00 -8.52823749E-07 -2.48324380E-05
 -7.28159362E-05 -7.43077566E-02 -9.02228183E-06 -2.38811180E-05 -7.45963825E-05
 -6.68590109E-02 -8.95573506E-06 -7.77816508E-06  2.84098436E-02 -2.84673643E-02
 -3.62855398E+00 -1.85936778E-07 -5.53011347E-06 -2.50974898E-05 -9.02228183E-06
 -7.43788293E-02 -5.43420333E-06 -2.67914840E-05 -8.95573506E-06 -6.69267499E-02
  5.99919868E-07  1.64650177E-03 -1.66169509E-03 -9.36076814E-06 -3.62863264E+00
  1.23695871E-07  3.49776710E-06 -9.02228183E-06  5.12952641E-03 -8.82020319E-02
  3.25806734E-06 -8.95573506E-06  4.95129683E-03 -8.51646353E-02 -5.40444200E-06
 -1.58596313E-06  1.61421816E-05  2.85182472E-03 -4.93069214E-02 -3.67449722E+00
 -3.91325845E-01 -1.33383372E+00  1.68126290E+00 -5.44343003E-04 -2.09669224E-04
 -1.69006653E+00  2.14555717E+00 -6.94740196E-04 -2.67676841E-04 -1.97593312E+00
 -5.99849802E-01 -5.99849191E-01  7.71527439E-04  2.97269692E-04  6.16923427E-08
 -3.76762440E+00 -1.54275144E+00 -2.76888614E+00  1.39552659E+00 -4.49099223E-04
 -1.72896244E-04 -3.22775302E+00  2.12897679E+00 -6.83851316E-04 -2.64601216E-04
 -2.29682766E+00 -1.86839559E+00 -1.86839312E+00  2.35156612E-04  9.17733203E-05
  1.40177712E-06 -2.78688940E+00 -3.71912148E+00 -6.18803137E-01 -1.73305655E+00
 -6.88464823E-01 -9.37783575E-01 -1.69959842E+00 -1.98198424E+00 -7.58826526E-01
 -1.03474238E+00 -1.87532221E+00 -9.83899323E-01 -1.13769262E+00 -1.89553143E+00
 -4.21655844E-01 -7.64188869E-01 -1.04127098E+00 -1.02391205E-01 -7.22364556E-01
 -4.03592673E+00 -1.75209225E+00 -3.07583047E+00 -4.86734376E-01 -6.53374393E-01
 -1.18415082E+00 -3.50145971E+00 -7.03651488E-01 -9.55462541E-01 -1.73164293E+00
 -2.12671417E+00 -2.17323344E+00 -2.37382402E+00 -1.12531172E-01 -2.03930749E-01
 -2.75608837E-01 -6.86475689E-01 -1.76657020E+00 -2.95592758E+00 -3.89205318E+00
 -6.18838507E-01 -1.73311333E+00 -6.88041491E-01 -1.00275506E+00  1.66233218E+00
 -1.98202433E+00 -7.58345475E-01 -1.10641103E+00  1.83416891E+00 -9.83703674E-01
 -1.18526535E+00 -1.84827127E+00 -4.50577118E-01  7.46948504E-01  1.08896417E+00
 -1.02400935E-01 -7.22396752E-01 -1.45556526E-01 -8.27202953E-01 -4.03596436E+00
 -1.75211994E+00 -3.07587058E+00 -4.86428072E-01 -6.98626030E-01  1.15816347E+00
 -3.50149512E+00 -7.03199761E-01 -1.02163130E+00  1.69362813E+00 -2.12668159E+00
 -2.18584326E+00 -2.36133010E+00 -1.20247108E-01  1.99322397E-01  2.88229310E-01
 -6.86501871E-01 -1.76661176E+00 -8.27197378E-01 -1.94395725E+00 -2.95595097E+00
 -3.89207605E+00 -6.18759935E-01 -1.73298887E+00 -6.87074279E-01  1.94121800E+00
  3.75678501E-02 -1.98193775E+00 -7.57309485E-01  2.14197151E+00  4.14527870E-02
 -9.83149900E-01 -2.22735692E+00 -8.06478263E-01  8.71096964E-01  1.68577795E-02
 -4.76454381E-02 -1.02412929E-01 -7.22422577E-01 -1.45534185E-01 -8.27141444E-01
 -1.45534438E-01 -8.27141075E-01 -4.03588723E+00 -1.75205842E+00 -3.07578337E+00
 -4.85776331E-01  1.35253608E+00  2.61766147E-02 -3.50142028E+00 -7.02253940E-01
  1.97789020E+00  3.82775116E-02 -2.12649291E+00 -2.46164175E+00 -2.08554032E+00
  2.32458627E-01  4.49654366E-03 -1.26109139E-02 -6.86536971E-01 -1.76665189E+00
 -8.27147535E-01 -1.94388286E+00 -8.27152741E-01 -1.94388745E+00 -2.95590326E+00
 -3.89203155E+00
Number of independent functions            I               23
Alpha MO coefficients                      R   N=         529
  9.92854283E-01  4.93541287E-02  7.00808345E-05  9.50687476E-08 -2.68083205E-09
 -1.41577764E-02 -1.81478966E-04  6.54680776E-08  3.24308421E-08 -9.34307207E-03
 -9.21583210E-03 -9.21567378E-03  1.33462873E-07  1.70080527E-08 -2.28184521E-08
 -6.77440683E-05  2.16318426E-03 -1.81564902E-04  2.59900423E-03 -1.81587455E-04
  2.59905941E-03 -1.81367638E-04  2.59884865E-03  1.97963477E-01 -3.79899209E-01
 -2.15350637E-02  4.66935149E-06  5.54056095E-06 -3.71153552E-01 -3.93609935E-03
 -2.27522773E-06  9.85411033E-07  1.07275031E-03 -2.13979917E-03 -2.14065715E-03
 -3.56418559E-06 -3.89700138E-07  2.82435358E-07 -1.12290366E-01 -3.57034126E-02
 -1.38911430E-01 -4.02593441E-02 -1.38915093E-01 -4.02600801E-02 -1.38906368E-01
 -4.02604655E-02 -1.79955635E-06  4.41644508E-06 -1.75933499E-04 -2.85950068E-01
  3.44336719E-01  6.26564577E-06 -8.65093675E-05 -1.35280252E-01  1.62901913E-01
  1.62895875E-06  1.07535756E-02 -1.07547520E-02 -1.05344674E-02  1.26983750E-02
  1.68398061E-02  8.14134096E-05  6.78458315E-05  1.01121310E-01  8.55990017E-02
 -2.74118151E-01 -2.32030556E-01  1.72931301E-01  1.46387610E-01 -1.74059294E-06
  4.72246766E-06 -3.44612825E-04 -3.44331448E-01 -2.85952856E-01  5.36913861E-06
 -1.66134226E-04 -1.62899416E-01 -1.35283751E-01 -1.55519613E-06  1.45902315E-02
 -1.45881329E-02 -1.26893059E-02 -1.05487775E-02 -1.24066752E-02  1.25443052E-04
  1.08514898E-04 -2.58139486E-01 -2.18510036E-01  4.14238778E-02  3.50640366E-02
  2.16607593E-01  1.83363101E-01  4.70975525E-03 -6.45378570E-03  4.31436364E-01
 -3.74497041E-04 -8.55854218E-05 -2.70280985E-02  2.25462643E-01 -1.95026234E-04
 -4.21714380E-05 -2.33072601E-02  1.13738095E-02  1.13545055E-02  6.90750532E-06
  3.50358333E-06 -5.50730047E-07 -2.94005382E-01 -2.71061011E-01  9.02716842E-02
  7.69907499E-02  9.02968187E-02  7.70143799E-02  9.04846818E-02  7.71830097E-02
  1.59448281E-01 -2.01740921E-01  1.15063853E-01 -3.12705177E-05 -2.39739565E-05
 -2.35409473E+00  2.58589901E-01 -5.77143484E-05 -5.95029653E-05  1.90898815E-02
  9.12418718E-03  9.12408511E-03 -3.52834374E-06 -1.29324535E-06  5.18515203E-07
  7.56673946E-02  1.20518198E+00  1.35231735E-02  8.14331719E-01  1.35155712E-02
  8.14282981E-01  1.35167341E-02  8.14331252E-01 -4.01380454E-02  3.98347270E-02
  3.89160169E-01 -2.78709759E-04 -4.91471772E-05  8.50648280E-01  1.19922658E+00
 -9.07064485E-04 -1.62396130E-04  1.73736119E-02 -1.33110265E-02 -1.32999270E-02
 -6.11493120E-06 -5.13081743E-06  4.22385789E-07  1.42682310E-01  1.30897709E+00
 -4.03991461E-02 -8.40332945E-01 -4.04038081E-02 -8.40328303E-01 -4.04817698E-02
 -8.41233750E-01 -1.58816118E-05  1.25183238E-05  2.96733552E-04  3.71130881E-01
  1.08864107E-01  3.66732699E-04  9.91200853E-04  1.30039813E+00  3.81422287E-01
 -2.15830485E-06  1.34594571E-02 -1.34638515E-02 -8.49278293E-03 -2.49696286E-03
 -3.59439281E-03  3.62141752E-05  4.98897702E-04 -8.45821679E-02 -1.25238130E+00
 -3.03487285E-02 -4.49534190E-01  1.14893589E-01  1.70092852E+00 -8.01932512E-06
  8.09663702E-06  2.83969199E-05  1.08864914E-01 -3.71138998E-01  1.84730160E-04
  8.79147906E-05  3.81447106E-01 -1.30038080E+00  1.75962083E-06  3.11410010E-03
 -3.11781325E-03 -2.48953869E-03  8.50713938E-03  1.55394236E-02  1.13006049E-05
  1.05946148E-04  8.38658926E-02  1.24144748E+00 -1.15177310E-01 -1.70523882E+00
  3.13026415E-02  4.63431991E-01  1.44837345E-06  1.10008433E-05 -4.47677307E-05
  1.74902327E-01 -7.44924259E-01 -4.92892818E-05  7.69805502E-05 -3.34066260E-01
  1.42274388E+00 -2.96484458E-06 -1.23681942E-02  1.23728846E-02  1.32323756E-02
 -5.64622673E-02 -8.18082754E-02  1.10300716E-05  5.94984954E-06 -3.43824640E-01
 -1.64946783E-01  4.41023362E-01  2.11626135E-01 -9.71937080E-02 -4.66491400E-02
  1.03111009E-06  2.36840082E-05  5.23275816E-05  7.44947518E-01  1.74905676E-01
 -5.13574012E-05 -2.42863383E-04 -1.42278459E+00 -3.34030330E-01  7.25537420E-05
 -7.09126056E-02  7.08549343E-02  5.64005553E-02  1.32663622E-02  1.42592069E-02
  1.48644043E-04 -4.27163410E-05  3.10697417E-01  1.49116101E-01  1.42351132E-01
  6.83682298E-02 -4.53161060E-01 -2.17439285E-01  8.33393217E-03  3.72919150E-02
  8.29612271E-01 -9.83105488E-05 -6.37382794E-05 -2.41732180E-01 -1.44663170E+00
  3.79397745E-05  9.22243557E-05 -1.12267574E-01  5.28295497E-02  5.28774339E-02
  8.30056381E-05  2.91417879E-05  3.22365627E-06 -4.59429720E-01 -1.66038625E-01
  1.74395825E-01  1.25685647E-01  1.74357358E-01  1.25638824E-01  1.74175696E-01
  1.25437703E-01  3.28375686E-02 -3.45884884E-01  6.78966416E-01 -3.62710394E-04
 -1.08851381E-04  5.42755689E-01 -1.02868948E+00  5.48873405E-04  1.66388009E-04
  1.66503524E-01 -9.20176796E-02 -9.19897864E-02 -8.32900466E-05 -3.58302138E-05
  2.20343004E-06  1.07336030E+00 -1.75417338E+00 -3.92692236E-02  2.59267181E-01
 -3.92972984E-02  2.59335479E-01 -3.94413560E-02  2.59649665E-01 -2.57811311E-05
  2.24724355E-04 -3.48371839E-04 -7.97068637E-01 -2.90776222E-01 -3.30383973E-04
  5.22197135E-04  1.14417373E+00  4.17410428E-01  7.88760290E-05 -1.39297235E-01
  1.39228148E-01  1.07585770E-01  3.93074181E-02  4.82716237E-02 -2.04921662E-04
  2.12542231E-04  6.33368004E-01 -1.21300058E+00  1.61094611E-01 -3.08631164E-01
 -7.94951620E-01  1.52204825E+00  1.84520954E-05 -1.62720256E-04 -4.77908867E-05
  2.90780719E-01 -7.97085115E-01  2.41631378E-04  5.47082637E-05 -4.17411241E-01
  1.14422161E+00 -1.71204430E-05  4.18609285E-02 -4.18532315E-02 -3.92291727E-02
  1.07698103E-01  1.60730648E-01  7.03307796E-05 -2.90273284E-05  5.52105696E-01
 -1.05712889E+00 -8.24493891E-01  1.57897928E+00  2.72810754E-01 -5.22272193E-01
 -9.29078113E-02  6.58079431E-01  3.55260853E-01  1.37550092E-04 -1.43376923E-04
 -8.92740767E-01 -4.44080183E-01 -2.31706266E-04  1.88477072E-04  1.05116461E-01
 -3.24692883E-02 -3.25348102E-02 -1.08341585E-04 -1.38385535E-05  2.61299695E-05
 -2.49683864E-01 -1.30003121E-01 -7.19528614E-01  6.82577597E-01 -7.19692561E-01
  6.82889556E-01 -7.19246290E-01  6.82005696E-01  9.27263933E-02  2.05966277E+00
 -5.87723664E-03 -1.23861073E-05 -2.95665251E-06 -5.24912296E+00 -1.21932858E-01
  9.53231079E-05  3.81328209E-05  1.29967486E-01  1.11961321E-01  1.11900533E-01
  1.43658120E-05  7.72250284E-06 -2.50038075E-06  3.39930277E-01  7.48809261E-01
  2.48140446E-01  1.06930865E+00  2.48123094E-01  1.06936936E+00  2.48174249E-01
  1.06929959E+00 -9.76713842E-06 -9.74645268E-05  2.27502063E-06 -4.48206062E-03
 -6.17306871E-04  2.94335538E-04 -4.82870018E-06 -2.00941435E-03 -2.74566946E-04
  5.17683831E-04  5.01482731E-01 -5.02012040E-01  8.06177080E-01  1.10826532E-01
 -4.59365388E-02 -5.45576641E-05 -3.82667466E-05  4.12404652E-03 -1.57636192E-03
  2.71089072E-03 -1.05692396E-03 -6.96958341E-03  2.48661063E-03  1.64706029E-06
  1.36343984E-05 -1.77604657E-06 -6.16214325E-04  4.47693968E-03 -4.42000049E-05
 -1.71010644E-06 -2.77574848E-04  1.99805415E-03 -1.16036153E-04  3.95860986E-02
 -3.94680906E-02  1.11013360E-01 -8.05760582E-01  5.79934870E-01  5.24797870E-06
  6.13239934E-06 -5.56140583E-03  2.04927607E-03  6.39582419E-03 -2.33395654E-03
 -8.10118796E-04  3.05872124E-04 -1.23896705E-02  2.57513198E-02  6.49448493E-02
 -2.52011773E-05 -4.79301427E-06  1.67484960E-01  4.17430569E-01 -1.15006921E-04
 -2.17144874E-05 -1.09856838E+00  5.36851173E-01  5.36841279E-01  6.65753124E-04
  2.87342989E-04  5.21246444E-05  6.67722257E-01 -1.01161879E-01 -2.91569967E-01
  1.06981640E-03 -2.91500001E-01  1.07340558E-03 -2.91550686E-01  1.12862149E-03
  2.25536639E-06 -2.98767567E-05 -6.01981720E-05 -1.46912153E-01 -1.86237163E-02
  7.60767224E-06 -2.11540623E-04 -4.28450782E-01 -5.43131899E-02 -4.16991893E-04
  7.94983909E-01 -7.94557393E-01 -6.50994785E-01 -8.27235781E-02 -6.25343105E-02
 -2.40158201E-07 -3.78326574E-05  4.58052170E-01 -5.10637849E-02  3.14587148E-01
 -3.50567743E-02 -7.72592120E-01  8.61400032E-02  1.99314865E-06 -9.55471145E-06
  3.97960094E-06 -1.86322324E-02  1.46931621E-01 -2.20673331E-05  1.52842392E-05
 -5.43284142E-02  4.28435539E-01  1.66568865E-04  5.42776691E-02 -5.44411016E-02
 -8.24359847E-02  6.51667488E-01  9.17270593E-01 -3.91734387E-05  1.16088458E-05
 -6.27673828E-01  6.99931642E-02  7.10563742E-01 -7.92237314E-02 -8.28104175E-02
  9.22986443E-03  4.86758751E-01 -2.94113236E+00  1.67638180E-02 -5.31549249E-06
 -4.63554562E-06 -2.37304829E+00 -2.94810003E-02  2.51279757E-05  8.15656737E-06
  1.85012744E+00  1.88512975E+00  1.88514404E+00  1.82095761E-05  3.47227545E-06
 -2.43883172E-06 -7.15801248E-02  4.02611287E-01 -1.33580811E-01  4.99281486E-01
 -1.33589632E-01  4.99296175E-01 -1.33564146E-01  4.99276419E-01
Alpha Orbital Energies                     R   N=          23
 -1.01771439E+01 -6.84015730E-01 -3.90458493E-01 -3.90455095E-01 -3.74307211E-01
  1.08435458E-01  1.55513340E-01  1.76377714E-01  1.76388583E-01  5.31798276E-01
  5.31804569E-01  5.58676053E-01  8.37801893E-01  8.96281986E-01  8.96297987E-01
  9.28983026E-01  1.09256669E+00  1.66048217E+00  1.66048754E+00  2.14806363E+00
  2.24394335E+00  2.24398182E+00  4.16276010E+00
Total SCF Density                          R   N=         276
  2.04994269E+00 -5.24702124E-02  2.93601781E-01 -4.32323087E-03  1.08004244E-02
  3.73202500E-01  7.37770424E-07 -4.48248831E-06  1.45940783E-05  4.00663456E-01
  1.13830968E-06 -2.76459194E-06  1.83735626E-06 -1.02993466E-06  4.00673639E-01
 -1.75317505E-01  2.80953259E-01 -7.33816863E-03  9.49425091E-06  1.75804335E-06
  2.77371840E-01  2.04976458E-04  6.25510931E-05  1.94715214E-01 -5.02178192E-06
 -3.19983710E-06 -9.26072274E-03  1.01697929E-01 -1.55390310E-06  1.51900164E-06
 -8.30970250E-06  1.89549725E-01 -7.76222675E-07  8.78494508E-06 -1.03920180E-05
  8.96740091E-02 -5.80397723E-08 -4.00332793E-08 -5.09796792E-07  1.30540776E-06
  1.89555778E-01  2.13588860E-06 -2.25849735E-06  4.80939332E-07  8.96774565E-02
 -1.83474305E-02 -1.43647222E-03 -2.01587117E-02  1.76046457E-05  6.01270692E-06
  7.28145929E-04 -1.05148865E-02  9.15089865E-06  2.91881607E-06  1.26334434E-03
 -1.90401147E-02  5.69561826E-04  9.89117999E-03 -1.62062631E-02 -9.40505405E-04
  1.23480604E-03  5.14221976E-03 -7.66740109E-03 -4.45050545E-04 -3.62577596E-04
  1.09477618E-03 -1.90401429E-02  5.70012946E-04  9.90223859E-03  1.61884238E-02
  9.34557271E-04  1.23589910E-03  5.14693817E-03  7.65818749E-03  4.42172845E-04
 -3.61661862E-04 -2.19683228E-04  1.09382833E-03 -9.98984891E-07  2.41917788E-06
  1.85663531E-05  1.47633123E-02  2.27739276E-06  2.00027597E-06  9.18169459E-06
  6.98436918E-03  1.14341510E-06 -3.26982623E-07 -5.96676282E-04  5.96987393E-04
  5.43987096E-04 -9.64983400E-08  2.65080462E-07  5.84228228E-06  2.34668248E-06
  1.47779391E-02  1.45256539E-07  2.89088513E-06  1.09930049E-06  6.99133523E-03
 -9.02906789E-08 -3.46312897E-05  3.47191072E-05  1.72145136E-07  5.45050893E-04
  4.39069504E-08 -1.78173807E-07  2.13824907E-06 -1.08667013E-03  1.86925757E-02
 -1.01439081E-07  9.58191581E-07 -5.14105933E-04  8.84331640E-03  1.20156696E-07
  1.30413862E-07 -2.48719848E-07 -3.99325954E-05  6.89426852E-04  8.75009317E-04
 -4.73626901E-02  8.91062529E-02 -2.48852990E-01  8.62113162E-05  3.34065010E-05
  9.92486696E-02 -1.31690520E-01  5.22920349E-05  1.71599378E-05  1.34652665E-02
 -6.20070467E-03 -6.19998360E-03 -8.16012248E-06 -2.55153355E-06 -1.10281580E-07
  1.98096635E-01 -1.23937526E-02  3.08396616E-02 -2.32353199E-01  8.91588567E-05
  3.06654284E-05  4.10941745E-02 -1.21948033E-01  5.21803367E-05  1.55356671E-05
  1.25183556E-02 -6.04844176E-03 -6.04716574E-03 -7.67302304E-06 -2.43780426E-06
 -1.29300533E-07  1.67404836E-01  1.49507002E-01 -5.45084648E-02  1.04360030E-01
  8.40182171E-02  1.19870885E-01  2.17254015E-01  9.82388339E-02  4.18676650E-02
  5.67075320E-02  1.02781978E-01 -4.50148070E-03 -2.70650087E-03  8.00452768E-03
  4.42294076E-03  8.01500543E-03  9.81085410E-03 -2.19321650E-02 -3.90621319E-02
  2.08613818E-01 -1.00532268E-02  2.98504578E-02  6.82880411E-02  1.01467632E-01
  1.83903272E-01  2.56481040E-02  3.50908559E-02  4.80007587E-02  8.70036240E-02
 -3.72287016E-03 -2.65948725E-03  6.40695836E-03  3.74335288E-03  6.78453490E-03
  8.30479959E-03 -3.62711521E-02 -3.88881530E-02  1.55208095E-01  1.25257940E-01
 -5.45094152E-02  1.04362001E-01  8.39656304E-02  1.28172191E-01 -2.12485437E-01
  9.82387091E-02  4.18444157E-02  6.06351057E-02 -1.00524587E-01 -4.50481403E-03
 -2.03484718E-03  7.33618893E-03  4.72633459E-03 -7.83491169E-03 -1.02602361E-02
 -2.19320646E-02 -3.90613992E-02 -2.19283037E-02 -3.99431895E-02  2.08615300E-01
 -1.00529256E-02  2.98503069E-02  6.82454561E-02  1.08492947E-01 -1.79860232E-01
  2.56461140E-02  3.50722183E-02  5.13246259E-02 -8.50902063E-02 -3.72579780E-03
 -2.09084566E-03  5.84120681E-03  4.00011173E-03 -6.63201633E-03 -8.68486305E-03
 -3.62729819E-02 -3.88889771E-02 -3.99406298E-02 -3.99328672E-02  1.55205379E-01
  1.25253019E-01 -5.45059734E-02  1.04358572E-01  8.38493135E-02 -2.48138117E-01
 -4.80295330E-03  9.82295543E-02  4.17935032E-02 -1.17393543E-01 -2.27320123E-03
 -4.51264501E-03  1.26960869E-02 -7.38660492E-03 -9.13843814E-03 -1.77255289E-04
  4.49320969E-04 -2.19277468E-02 -3.90651850E-02 -2.19280261E-02 -3.99397893E-02
 -2.19283586E-02 -3.99393552E-02  2.08613147E-01 -1.00537865E-02  2.98531455E-02
  6.81556143E-02 -2.10052643E-01 -4.06680414E-03  2.56436251E-02  3.50335123E-02
 -9.93761117E-02 -1.92504199E-03 -3.73288369E-03  1.03791279E-02 -6.62135822E-03
 -7.73637799E-03 -1.50171297E-04  3.80317188E-04 -3.62732287E-02 -3.88968349E-02
 -3.99414850E-02 -3.99321048E-02 -3.99403912E-02 -3.99302044E-02  1.55217367E-01
  1.25272470E-01
Pure Switching                             I                1
Dipole_Data                                R   N=           3
  8.15012443E-02 -1.15300351E-05 -2.36972336E-05
Quadrupole_Data                            R   N=           6
 -8.28598933E+00  1.58088006E-04 -8.33107873E+00  2.54367193E-05 -1.85663216E-05
 -8.33111230E+00
Octapole_Data                              R   N=          10
 -6.35200213E-01  6.15283160E-04  5.32975082E-01 -5.56014720E-01  2.13881604E-04
  6.38811504E-05 -3.23016995E-02  5.33437124E-01  5.55388447E-01  3.19681072E-02
Hexadecapole_Data                          R   N=          15
 -1.62239717E+01 -1.10920193E-04 -5.57208157E+00 -3.21854170E-01 -1.51598542E+01
 -1.09107159E-04  6.51540774E-05 -1.86481326E-02  2.07508062E-05 -5.57146632E+00
  3.22606781E-01 -5.05357264E+00  1.88551025E-02 -1.61786836E-04 -1.51598097E+01
