Jobname.Temp
SP        R                             6-31G(d)            
Number of atoms                            I                5
Charge                                     I                0
Multiplicity                               I                1
Number of electrons                        I               10
Number of alpha electrons                  I                5
Number of beta electrons                   I                5
Atomic numbers                             I   N=           5
           6           1           1           1           1
Current cartesian coordinates              R   N=          15
  9.46211204E-03  6.84076230E-06 -3.97129164E-06 -2.15108759E+00  1.44433539E-03
  5.45921064E-04  6.99251233E-01  9.40540759E-01  1.70531722E+00  6.98386744E-01
  1.00603040E+00 -1.66785632E+00  6.96676945E-01 -1.94805654E+00 -3.79829959E-02
Nuclear charges                            R   N=           5
  6.00000000E+00  1.00000000E+00  1.00000000E+00  1.00000000E+00  1.00000000E+00
Number of basis functions                  I               23
Number of contracted shells                I               12
Number of primitive shells                 I               27
Highest angular momentum                   I                2
Largest degree of contraction              I                6
Shell types                                I   N=          12
           0          -1          -1           2           0           0
           0           0           0           0           0           0
Number of primitives per shell             I   N=          12
           6           3           1           1           3           1
           3           1           3           1           3           1
Shell to atom map                          I   N=          12
           1           1           1           1           2           2
           3           3           4           4           5           5
Primitive exponents                        R   N=          27
  3.04752490E+03  4.57369510E+02  1.03948690E+02  2.92101550E+01  9.28666300E+00
  3.16392700E+00  7.86827240E+00  1.88128850E+00  5.44249300E-01  1.68714400E-01
  8.00000000E-01  1.87311370E+01  2.82539370E+00  6.40121700E-01  1.61277800E-01
  1.87311370E+01  2.82539370E+00  6.40121700E-01  1.61277800E-01  1.87311370E+01
  2.82539370E+00  6.40121700E-01  1.61277800E-01  1.87311370E+01  2.82539370E+00
  6.40121700E-01  1.61277800E-01
Contraction coefficients                   R   N=          27
  1.83470016E-03  1.40373012E-02  6.88426061E-02  2.32184421E-01  4.67941342E-01
  3.62312032E-01 -1.19332409E-01 -1.60854212E-01  1.14345648E+00  1.00000000E+00
  1.00000000E+00  3.34945995E-02  2.34726947E-01  8.13757318E-01  1.00000000E+00
  3.34945995E-02  2.34726947E-01  8.13757318E-01  1.00000000E+00  3.34945995E-02
  2.34726947E-01  8.13757318E-01  1.00000000E+00  3.34945995E-02  2.34726947E-01
  8.13757318E-01  1.00000000E+00
P(S=P) Contraction coefficients            R   N=          27
  0.00000000E+00  0.00000000E+00  0.00000000E+00  0.00000000E+00  0.00000000E+00
  0.00000000E+00  6.89990956E-02  3.16423980E-01  7.44308252E-01  1.00000000E+00
  0.00000000E+00  0.00000000E+00  0.00000000E+00  0.00000000E+00  0.00000000E+00
  0.00000000E+00  0.00000000E+00  0.00000000E+00  0.00000000E+00  0.00000000E+00
  0.00000000E+00  0.00000000E+00  0.00000000E+00  0.00000000E+00  0.00000000E+00
  0.00000000E+00  0.00000000E+00
Coordinates of each shell                  R   N=          36
  9.46211204E-03  6.84076230E-06 -3.97129164E-06  9.46211204E-03  6.84076230E-06
 -3.97129164E-06  9.46211204E-03  6.84076230E-06 -3.97129164E-06  9.46211204E-03
  6.84076230E-06 -3.97129164E-06 -2.15108759E+00  1.44433539E-03  5.45921064E-04
 -2.15108759E+00  1.44433539E-03  5.45921064E-04  6.99251233E-01  9.40540759E-01
  1.70531722E+00  6.99251233E-01  9.40540759E-01  1.70531722E+00  6.98386744E-01
  1.00603040E+00 -1.66785632E+00  6.98386744E-01  1.00603040E+00 -1.66785632E+00
  6.96676945E-01 -1.94805654E+00 -3.79829959E-02  6.96676945E-01 -1.94805654E+00
 -3.79829959E-02
Overlap Matrix                             R   N=         276
  1.00000000E+00  2.19058872E-01  1.00000000E+00 -8.19252889E-20  2.01724059E-19
  1.00000000E+00 -3.91323740E-22 -1.10836922E-22  6.92339685E-40  1.00000000E+00
 -3.79119081E-22  1.18265977E-22  0.00000000E+00 -5.40573530E-43  1.00000000E+00
  1.84261053E-01  8.12273068E-01 -6.13587191E-19  7.29018353E-22 -7.29018353E-22
  1.00000000E+00  0.00000000E+00  9.34087819E-20  5.69754058E-01  0.00000000E+00
  0.00000000E+00  0.00000000E+00  1.00000000E+00 -1.01945931E-24  6.23565968E-22
  0.00000000E+00  5.69754058E-01 -5.07276609E-43  0.00000000E+00  0.00000000E+00
  1.00000000E+00  4.43591648E-23 -6.23565968E-22  0.00000000E+00 -5.07276609E-43
  5.69754058E-01  0.00000000E+00  0.00000000E+00  0.00000000E+00  1.00000000E+00
  7.91027073E-02  7.10235064E-01  0.00000000E+00 -1.53891061E-23 -2.21733807E-22
  6.29936196E-01  0.00000000E+00  0.00000000E+00  0.00000000E+00  1.00000000E+00
  7.91027073E-02  7.10235064E-01  0.00000000E+00 -4.61673183E-23 -2.21733807E-22
  6.29936196E-01  0.00000000E+00  0.00000000E+00  0.00000000E+00  3.33333333E-01
  1.00000000E+00  7.91027073E-02  7.10235064E-01  0.00000000E+00 -1.53891061E-23
 -6.65201421E-22  6.29936196E-01  0.00000000E+00  0.00000000E+00  0.00000000E+00
  3.33333333E-01  3.33333333E-01  1.00000000E+00  1.25031051E-39  0.00000000E+00
 -2.66547136E-23  0.00000000E+00  0.00000000E+00  0.00000000E+00  0.00000000E+00
  0.00000000E+00  0.00000000E+00  0.00000000E+00  0.00000000E+00  0.00000000E+00
  1.00000000E+00 -1.22679298E-39  0.00000000E+00 -3.84054220E-22  0.00000000E+00
  0.00000000E+00  0.00000000E+00  0.00000000E+00  0.00000000E+00  0.00000000E+00
  0.00000000E+00  0.00000000E+00  0.00000000E+00  0.00000000E+00  1.00000000E+00
 -6.96495221E-43  0.00000000E+00  0.00000000E+00 -3.84054220E-22 -2.66547136E-23
  0.00000000E+00  0.00000000E+00  0.00000000E+00  0.00000000E+00  0.00000000E+00
  0.00000000E+00  0.00000000E+00  0.00000000E+00  0.00000000E+00  1.00000000E+00
  2.57607512E-02  2.41335282E-01 -3.35751651E-01  2.23388146E-04  8.54538388E-05
  3.55828326E-01 -5.09710467E-01  3.39129461E-04  1.29728970E-04  4.14455546E-01
  1.00811266E-01  1.00811147E-01 -3.61443283E-04 -1.38264794E-04  9.19927451E-08
  1.00000000E+00  8.62938490E-02  4.52057999E-01 -2.64071481E-01  1.75696645E-04
  6.72101586E-05  6.80257111E-01 -5.90084681E-01  3.92605435E-04  1.50185415E-04
  4.15621424E-01  3.31803098E-01  3.31803066E-01 -9.65921363E-05 -3.69498963E-05
  2.45841497E-08  6.58292049E-01  1.00000000E+00  3.22670405E-02  2.71611275E-01
  1.22615473E-01  1.67187344E-01  3.03134332E-01  3.75719756E-01  1.71861361E-01
  2.34334573E-01  4.24881768E-01  1.54078699E-01  1.86347845E-01  3.46078612E-01
  8.87019769E-02  1.60829246E-01  2.19292181E-01  1.51547630E-02  1.37925152E-01
  1.00000000E+00  9.18331960E-02  4.74645936E-01  8.87052388E-02  1.20950423E-01
  2.19300245E-01  7.03035538E-01  1.94702087E-01  2.65478117E-01  4.81349423E-01
  3.59091777E-01  3.66836398E-01  4.05171910E-01  2.12885454E-02  3.85991476E-02
  5.26302988E-02  1.37925152E-01  3.82656621E-01  6.58292049E-01  1.00000000E+00
  3.22688893E-02  2.71619422E-01  1.22466005E-01  1.78834782E-01 -2.96484120E-01
  3.75724947E-01  1.71648352E-01  2.50654831E-01 -4.15552143E-01  1.53990446E-01
  1.96418288E-01  3.36115145E-01  9.47633115E-02 -1.57104880E-01 -2.29417275E-01
  1.51563273E-02  1.37930848E-01  1.80275534E-02  1.47834879E-01  1.00000000E+00
  9.18346470E-02  4.74651812E-01  8.85952112E-02  1.29373905E-01 -2.14484610E-01
  7.03041419E-01  1.94459700E-01  2.83965809E-01 -4.70777285E-01  3.59074086E-01
  3.69256521E-01  4.02782956E-01  2.27426445E-02 -3.77042591E-02 -5.50588139E-02
  1.37930848E-01  3.82666357E-01  1.47834879E-01  3.99365003E-01  6.58292049E-01
  1.00000000E+00  3.22647783E-02  2.71601305E-01  1.22152744E-01 -3.46269139E-01
 -6.75078864E-03  3.75713404E-01  1.71217071E-01 -4.85352894E-01 -9.46233559E-03
  1.53791757E-01  4.16062231E-01  1.16628259E-01 -1.83027455E-01 -3.56826388E-03
  1.01150381E-02  1.51586191E-02  1.37939194E-01  1.80245548E-02  1.47825061E-01
  1.80244188E-02  1.47824615E-01  1.00000000E+00  9.18314205E-02  4.74638745E-01
  8.83727953E-02 -2.50512356E-01 -4.88393499E-03  7.03028343E-01  1.93973475E-01
 -5.49860984E-01 -1.07199714E-02  3.59018639E-01  4.21965883E-01  3.50099069E-01
 -4.39282151E-02 -8.56415030E-04  2.42769900E-03  1.37939194E-01  3.82680619E-01
  1.47825061E-01  3.99348667E-01  1.47824615E-01  3.99347926E-01  6.58292049E-01
  1.00000000E+00
Core Hamiltonian Matrix                    R   N=         276
 -1.98600722E+01 -4.07991206E+00 -6.69887190E+00 -1.89980133E-03 -1.23936135E-02
 -5.96420693E+00  1.37725357E-06  9.61954511E-06 -1.68748419E-05 -5.97525804E+00
  9.37004583E-07  6.08707205E-06 -3.84736729E-06  2.28589106E-06 -5.97525786E+00
 -3.51577423E+00 -5.36276647E+00 -9.51482670E-03  8.65954785E-06  4.67271713E-06
 -5.42926965E+00 -3.19148839E-04 -6.32158360E-03 -3.05667445E+00 -1.15082376E-05
 -2.66983145E-06 -3.59415794E-03 -3.74948408E+00  2.31370315E-07  6.08576845E-06
 -1.15082376E-05 -3.06263133E+00  1.51613411E-06  8.38505008E-06 -1.02415877E-05
 -3.74901098E+00  1.57407219E-07  3.10109721E-06 -2.66983145E-06  1.51613411E-06
 -3.06262961E+00  1.88956024E-06 -2.42867033E-06  1.29481476E-06 -3.74900417E+00
 -1.50022316E+00 -4.39546488E+00  5.07186462E-02 -9.04791828E-05 -3.29481266E-05
 -3.75447209E+00  5.67789628E-02 -9.03449766E-05 -3.34775106E-05 -4.74182082E+00
 -1.50058748E+00 -4.40544940E+00 -3.95785083E-02  5.10231515E-02  2.98149577E-03
 -3.76304390E+00 -3.67104899E-02  4.92637424E-02  2.87787696E-03 -2.28231172E+00
 -4.75436765E+00 -1.50058750E+00 -4.40544948E+00 -3.96550981E-02 -5.09101359E-02
 -2.93456740E-03 -3.76304303E+00 -3.67839312E-02 -4.91570388E-02 -2.83622687E-03
 -2.28236082E+00 -2.29586255E+00 -4.75431854E+00 -8.96179084E-07 -2.57732886E-05
 -1.56714542E-04 -6.85519873E-02 -1.86542642E-05 -2.44237421E-05 -1.56482090E-04
 -6.35844336E-02 -1.82554405E-05  1.79466929E-05  2.83882686E-02 -2.84738517E-02
 -3.64693515E+00 -2.01630429E-07 -5.86497030E-06 -5.70678293E-05 -1.86542642E-05
 -6.86846447E-02 -5.61959550E-06 -5.79847493E-05 -1.82554405E-05 -6.37116377E-02
  1.03898788E-05  1.65235640E-03 -1.67816822E-03 -2.01881431E-05 -3.64708245E+00
  1.23835523E-07  3.50173642E-06 -1.86542642E-05  5.16410216E-03 -8.81789420E-02
  3.26177695E-06 -1.82554405E-05  4.98462910E-03 -8.51424887E-02 -1.16556298E-05
 -6.96819956E-06  2.77860020E-05  2.86196523E-03 -4.93181579E-02 -3.68758765E+00
 -4.94782666E-01 -1.52648180E+00  1.86935261E+00 -1.24244445E-03 -4.75409836E-04
 -1.83462628E+00  2.21572968E+00 -1.47270001E-03 -5.63609048E-04 -2.19075716E+00
 -6.98301368E-01 -6.98300223E-01  1.71789894E-03  6.57457074E-04 -2.43376120E-07
 -3.90282966E+00 -1.64799590E+00 -2.92845692E+00  1.42058979E+00 -9.41370237E-04
 -3.60088085E-04 -3.37141083E+00  2.12069769E+00 -1.40385398E-03 -5.38405561E-04
 -2.40775678E+00 -1.98033334E+00 -1.98033066E+00  4.86611824E-04  1.87471144E-04
  1.40354320E-06 -2.87277432E+00 -3.81075936E+00 -6.19371544E-01 -1.73594794E+00
 -6.89461223E-01 -9.39007679E-01 -1.70255446E+00 -1.98503854E+00 -7.60146761E-01
 -1.03587178E+00 -1.87818266E+00 -9.85791015E-01 -1.13928689E+00 -1.89886454E+00
 -4.22218021E-01 -7.65539302E-01 -1.04281270E+00 -1.22535349E-01 -7.75004898E-01
 -4.04236215E+00 -1.75383302E+00 -3.08298096E+00 -4.84138970E-01 -6.54419715E-01
 -1.18655950E+00 -3.50835925E+00 -7.03322205E-01 -9.56542661E-01 -1.73435171E+00
 -2.13396113E+00 -2.17760009E+00 -2.37863647E+00 -1.12218702E-01 -2.03452246E-01
 -2.75997030E-01 -7.55307016E-01 -1.85799029E+00 -2.96016316E+00 -3.89817290E+00
 -6.19406950E-01 -1.73600486E+00 -6.88622995E-01 -1.00442805E+00  1.66520805E+00
 -1.98507873E+00 -7.59208119E-01 -1.10802028E+00  1.83694963E+00 -9.85380238E-01
 -1.18718481E+00 -1.85149461E+00 -4.51070072E-01  7.47811641E-01  1.09096187E+00
 -1.22546702E-01 -7.75038675E-01 -1.45728379E-01 -8.28399569E-01 -4.04239992E+00
 -1.75386075E+00 -3.08302121E+00 -4.83543326E-01 -6.99997478E-01  1.16050865E+00
 -3.50839478E+00 -7.02447880E-01 -1.02315707E+00  1.69626172E+00 -2.13387178E+00
 -2.19029514E+00 -2.36611446E+00 -1.19884532E-01  1.98733111E-01  2.88737270E-01
 -7.55334945E-01 -1.85803292E+00 -8.28393972E-01 -1.94736440E+00 -2.96018665E+00
 -3.89819588E+00 -6.19328314E-01 -1.73588029E+00 -6.86859588E-01  1.94481957E+00
  3.79159591E-02 -1.98499210E+00 -7.57294037E-01  2.14548716E+00  4.18279513E-02
 -9.84414607E-01 -2.23165532E+00 -8.07734344E-01  8.71203735E-01  1.69845507E-02
 -4.81009103E-02 -1.22559955E-01 -7.75063846E-01 -1.45706015E-01 -8.28338006E-01
 -1.45706270E-01 -8.28337641E-01 -4.04232282E+00 -1.75379917E+00 -3.08293395E+00
 -4.82336500E-01  1.35544442E+00  2.64269755E-02 -3.50831988E+00 -7.00691219E-01
  1.98121348E+00  3.86254201E-02 -2.13357416E+00 -2.46670340E+00 -2.08982379E+00
  2.31531921E-01  4.51168324E-03 -1.27305645E-02 -7.55370577E-01 -1.85807147E+00
 -8.28344066E-01 -1.94728994E+00 -8.28349297E-01 -1.94729456E+00 -2.96013895E+00
 -3.89815136E+00
Number of independent functions            I               23
Alpha MO coefficients                      R   N=         529
  9.92832664E-01  4.95409998E-02  4.38319507E-05  7.92755919E-08 -7.69354059E-09
 -1.43844803E-02 -9.66827977E-05  7.78411143E-08  3.65822803E-08 -9.34254496E-03
 -9.27118631E-03 -9.27103097E-03  1.36751578E-07  1.98350252E-08 -2.22001525E-08
 -1.12289013E-04  2.37008285E-03 -1.71395989E-04  2.60081736E-03 -1.71418512E-04
  2.60087462E-03 -1.71202019E-04  2.60066917E-03  1.98144063E-01 -3.79933565E-01
 -1.13299683E-02  5.94128488E-06  5.74262963E-06 -3.66991871E-01 -1.86209857E-03
 -2.30658911E-06  6.39261870E-07 -2.11032475E-04 -1.87557276E-03 -1.87619853E-03
 -3.57080421E-06 -4.11799418E-07  2.81685995E-07 -1.23204091E-01 -3.70977618E-02
 -1.36909822E-01 -3.95195542E-02 -1.36913565E-01 -3.95206442E-02 -1.36905589E-01
 -3.95218445E-02  1.73074546E-06 -3.87054788E-06  4.18553098E-04  3.15970563E-01
 -3.15997448E-01 -8.02898218E-06  2.04206692E-04  1.50814766E-01 -1.50825990E-01
 -5.86177841E-06 -1.20501787E-02  1.20554343E-02  1.10790027E-02 -1.11015069E-02
 -1.56246982E-02 -1.88098146E-04 -1.57319612E-04 -7.68123246E-02 -6.49362834E-02
  2.68915471E-01  2.27325803E-01 -1.91931761E-01 -1.62257547E-01  1.26463035E-06
 -3.55597980E-06  6.56119067E-04  3.15991791E-01  3.15974334E-01 -4.83493082E-06
  3.16379966E-04  1.50824343E-01  1.50817125E-01 -6.73844738E-08 -1.35403018E-02
  1.35396104E-02  1.10866621E-02  1.11077488E-02  1.38955762E-02 -2.36617263E-04
 -2.01969790E-04  2.66143538E-01  2.24988147E-01 -6.63915214E-02 -5.61247855E-02
 -1.99530995E-01 -1.68684715E-01  2.37103178E-03 -3.29310576E-03  4.38822837E-01
 -7.57058318E-04 -1.68683014E-04 -1.40531740E-02  2.20249226E-01 -3.79932311E-04
 -8.26115959E-05 -2.45082276E-02  1.20514281E-02  1.20132817E-02  1.44952195E-05
  8.39040766E-06 -1.09676663E-06 -2.94052108E-01 -2.59380314E-01  9.38789469E-02
  7.97147741E-02  9.39263908E-02  7.97568554E-02  9.43177398E-02  8.00970140E-02
 -1.62818958E-01  2.00237927E-01 -5.07747618E-02  1.73094849E-05  2.26378189E-05
  2.51665037E+00 -1.16882494E-01  1.52693267E-05  5.73740236E-05 -1.55140725E-02
 -1.11669644E-02 -1.11663776E-02  3.73187932E-06  9.54817450E-07 -4.77463264E-07
 -4.42238996E-02 -1.09458143E+00 -1.68153956E-02 -9.21208410E-01 -1.68080676E-02
 -9.21156103E-01 -1.68157415E-02 -9.21259912E-01 -1.74156710E-02  1.60560236E-02
  3.92066050E-01 -5.32502083E-04 -1.10830925E-04  4.05333106E-01  1.28498982E+00
 -1.79489247E-03 -3.78081191E-04  1.89392067E-02 -1.16010277E-02 -1.15808519E-02
 -1.46781472E-05 -9.37324256E-06  6.52760038E-07  1.38631765E-01  1.60021922E+00
 -4.11518380E-02 -7.21887321E-01 -4.11619435E-02 -7.21947420E-01 -4.12932909E-02
 -7.23648446E-01  1.72182506E-05 -1.32053702E-05 -5.58510383E-04 -3.71983422E-01
 -1.00779883E-01 -3.96645020E-04 -1.91006371E-03 -1.31005683E+00 -3.54901038E-01
  3.12173350E-06 -1.35162575E-02  1.35204632E-02  9.64554388E-03  2.62320017E-03
  3.26197961E-03 -7.55281099E-05 -1.07556571E-03  8.31049552E-02  1.22676621E+00
  3.28665806E-02  4.85332696E-01 -1.15893822E-01 -1.71049528E+00  7.74534553E-06
 -8.31010278E-06 -3.10109522E-05 -1.00779659E-01  3.71993605E-01 -1.78273751E-04
 -9.93210825E-05 -3.54927816E-01  1.31003688E+00 -3.77754787E-06 -2.82932688E-03
  2.83482658E-03  2.60983214E-03 -9.67000110E-03 -1.55987643E-02 -1.83587367E-05
 -2.05131716E-04 -8.58945384E-02 -1.26760623E+00  1.14904476E-01  1.69600237E+00
 -2.89946151E-02 -4.27945451E-01  1.50652351E-06  1.20132432E-05 -7.70038324E-05
  2.46763611E-01 -7.24018804E-01 -5.12201139E-05  1.26144265E-04 -4.70120834E-01
  1.37931935E+00  6.38014255E-06 -1.92384707E-02  1.92347827E-02  1.88111467E-02
 -5.53594723E-02 -8.00508505E-02  4.32995812E-05  1.12746058E-05 -3.12806764E-01
 -1.46241433E-01  4.54173178E-01  2.12395954E-01 -1.41392275E-01 -6.61303872E-02
  9.64221935E-07  2.18378267E-05  9.96931368E-05  7.24044031E-01  2.46763455E-01
 -3.79718116E-05 -3.36241717E-04 -1.37935671E+00 -4.70081998E-01  1.41493119E-04
 -6.94505734E-02  6.93244130E-02  5.52520041E-02  1.88870522E-02  2.21564821E-02
  2.99450282E-04  1.74084753E-05  3.43757605E-01  1.60780079E-01  9.88726137E-02
  4.62977265E-02 -4.42894863E-01 -2.07104586E-01  3.86311518E-03  1.93854404E-02
  7.95764472E-01 -1.25769635E-04 -1.13846951E-04 -1.26005734E-01 -1.44362751E+00
  8.35720201E-05  1.84486615E-04 -1.08536773E-01  5.19812271E-02  5.20732165E-02
  1.62237529E-04  5.62520917E-05  7.09413038E-06 -4.81513130E-01 -1.83030856E-01
  1.69713038E-01  9.92330967E-02  1.69627402E-01  9.91621962E-02  1.69256948E-01
  9.88689088E-02  2.49386688E-02 -2.43748637E-01  7.70117463E-01 -8.27910037E-04
 -2.32820168E-04  3.69585062E-01 -1.13163196E+00  1.21339767E-03  3.43360755E-04
  1.82917652E-01 -9.87583285E-02 -9.86699712E-02 -1.80979788E-04 -8.01863490E-05
  3.06843303E-06  1.03168401E+00 -1.77524117E+00 -1.15126245E-01  3.68858844E-01
 -1.15168893E-01  3.68955134E-01 -1.15563805E-01  3.69742518E-01 -2.45858058E-05
  2.29685105E-04 -8.62909289E-04 -8.02014930E-01 -2.80254907E-01 -3.39269622E-04
  1.25434040E-03  1.15203372E+00  4.02573170E-01  1.02532330E-04 -1.39438938E-01
  1.39347251E-01  1.09452730E-01  3.83582795E-02  4.58465315E-02 -4.11729290E-04
  6.09629935E-04  6.25007033E-01 -1.19867464E+00  1.72259724E-01 -3.30462596E-01
 -7.97515966E-01  1.52914608E+00 -1.68322206E-05  1.60616452E-04 -1.09146473E-05
 -2.80259341E-01  8.02032277E-01 -2.42014578E-04  2.41305226E-05  4.02573311E-01
 -1.15208545E+00 -3.98745278E-06 -3.97965987E-02  3.98110179E-02  3.82090268E-02
 -1.09663488E-01 -1.60814851E-01 -1.36160488E-04  1.60901035E-04 -5.59995933E-01
  1.07378210E+00  8.21182065E-01 -1.57485876E+00 -2.61502102E-01  5.01345795E-01
 -9.63339016E-02  7.36798370E-01  2.52428326E-01  2.62530787E-05 -1.54778964E-04
 -1.01574572E+00 -3.26106398E-01 -7.59487328E-05  2.03355606E-04  8.11999367E-02
 -1.44783438E-02 -1.45217263E-02 -1.22152407E-04 -2.27710580E-05  2.40204574E-05
 -3.77280712E-01  6.69926680E-02 -7.08457729E-01  6.62678980E-01 -7.08606978E-01
  6.62960540E-01 -7.08260937E-01  6.62263085E-01  9.65770332E-02  2.05860198E+00
 -1.75664060E-03 -1.43602054E-05 -3.21014339E-06 -5.34321262E+00 -6.56288576E-02
  1.01842564E-04  4.08520835E-05  1.23238298E-01  1.12953302E-01  1.12892348E-01
  1.46680699E-05  7.67357565E-06 -3.10647055E-06  3.17204465E-01  8.81396229E-01
  2.70712601E-01  1.05221926E+00  2.70696344E-01  1.05228032E+00  2.70745865E-01
  1.05221482E+00 -1.03009042E-05 -9.92033493E-05 -2.23238820E-08 -2.46874360E-03
 -3.17863402E-04  3.08419067E-04 -4.10665550E-06 -9.07925352E-04 -1.15058827E-04
  1.01159966E-03  4.99700637E-01 -5.00723184E-01  8.08692490E-01  1.03676427E-01
 -4.05637373E-02 -5.34885241E-05 -4.51271146E-05  2.16000228E-03 -9.23245899E-04
  1.46063926E-03 -6.45239718E-04 -3.76613488E-03  1.41834330E-03  1.84952005E-06
  1.52037500E-05 -1.53265669E-06 -3.16572769E-04  2.46377320E-03 -5.01069221E-05
 -1.38010000E-06 -1.18100575E-04  8.97009785E-04 -2.40435619E-04  3.47568074E-02
 -3.45141260E-02  1.04036280E-01 -8.07892446E-01  5.78689431E-01  6.04254262E-06
  7.73840410E-06 -2.98929636E-03  1.19551960E-03  3.41307481E-03 -1.33906513E-03
 -3.97094143E-04  1.67195318E-04  6.09714800E-03 -1.83944004E-02 -1.02482814E-01
  7.32481990E-05  1.45739963E-05 -8.11548656E-02 -4.24682035E-01  2.61844279E-04
  5.39191609E-05  1.11234694E+00 -5.50264648E-01 -5.50258222E-01 -1.32119943E-03
 -5.74173523E-04 -1.02158072E-04 -7.41954324E-01  9.76595165E-02  2.83428970E-01
 -1.66775494E-02  2.83286003E-01 -1.66737868E-02  2.83376256E-01 -1.67342660E-02
  2.42129750E-06 -3.09081289E-05 -1.12855174E-04 -1.47666738E-01 -1.86193933E-02
  9.20133211E-06 -3.65572820E-04 -4.28548978E-01 -5.40359283E-02 -8.18050935E-04
  7.96547528E-01 -7.95718291E-01 -6.48757851E-01 -8.21788901E-02 -6.16250017E-02
  2.12119298E-06 -4.13881278E-05  4.57796804E-01 -5.10596036E-02  3.15286275E-01
 -3.51516045E-02 -7.73037109E-01  8.62320287E-02 -1.93496887E-06  9.39641618E-06
 -9.11581345E-06  1.86279959E-02 -1.47686211E-01  2.26109098E-05 -2.94684150E-05
  5.40510103E-02 -4.28534992E-01 -3.25013447E-04 -5.36038146E-02  5.39263691E-02
  8.16116309E-02 -6.50042340E-01 -9.18423304E-01  8.36230750E-05 -1.74101839E-05
  6.28319702E-01 -7.00987534E-02 -7.10688475E-01  7.92757582E-02  8.22444052E-02
 -9.17109538E-03  4.87418859E-01 -2.93897171E+00  9.75503410E-03 -6.28903898E-06
 -5.00956609E-06 -2.40770948E+00 -1.50987886E-02  2.55368783E-05  8.43314755E-06
  1.86307823E+00  1.88267962E+00  1.88269449E+00  2.00079085E-05  4.23884716E-06
 -2.30551749E-06 -9.79174471E-02  4.46776148E-01 -1.30801518E-01  4.97217298E-01
 -1.30810110E-01  4.97231971E-01 -1.30784429E-01  4.97211880E-01
Alpha Orbital Energies                     R   N=          23
 -1.01721323E+01 -6.86823279E-01 -3.89708689E-01 -3.89705297E-01 -3.81641646E-01
  1.14113649E-01  1.65297485E-01  1.76480843E-01  1.76492061E-01  5.32487330E-01
  5.32492666E-01  5.46082498E-01  8.67249180E-01  8.97072346E-01  8.97088894E-01
  9.35299302E-01  1.09615692E+00  1.65874272E+00  1.65874841E+00  2.19393996E+00
  2.24388718E+00  2.24392488E+00  4.17044795E+00
Total SCF Density                          R   N=         276
  2.04996678E+00 -5.22069305E-02  2.93629338E-01 -2.32196740E-03  5.72342549E-03
  3.85388917E-01  8.14811629E-07 -4.21386531E-06  1.45938135E-05  3.99377563E-01
  1.16591273E-06 -3.05444597E-06  1.93610342E-06 -9.36121699E-07  3.99388390E-01
 -1.74063925E-01  2.77532374E-01 -4.01896891E-03  8.78561638E-06  2.54513568E-06
  2.70174877E-01  1.14530106E-04 -4.52438504E-05  1.93343553E-01 -4.51160849E-06
 -3.44768015E-06 -4.82087618E-03  9.70266804E-02 -1.65765262E-06  2.02260029E-06
 -9.22824576E-06  1.90625137E-01 -7.91411733E-07  8.48904057E-06 -1.03206499E-05
  9.09864411E-02 -2.06404353E-07  1.56921139E-07 -8.67579830E-07  9.26187160E-07
  1.90629965E-01  2.81522764E-06 -2.56098676E-06  2.77696690E-07  9.09885828E-02
 -1.87510169E-02 -6.03904979E-04 -2.15055819E-02  3.33574415E-05  1.19279939E-05
  1.11250658E-03 -1.07932463E-02  1.68340422E-05  5.79626583E-06  1.37596187E-03
 -1.90956677E-02  4.27394734E-04  1.05907160E-02 -1.61905230E-02 -9.45211422E-04
  1.30496510E-03  5.30392397E-03 -7.72825428E-03 -4.51252785E-04 -4.16550628E-04
  1.12651234E-03 -1.90956362E-02  4.27757671E-04  1.06129654E-02  1.61569229E-02
  9.33291493E-04  1.30584315E-03  5.31410297E-03  7.71135945E-03  4.45476640E-04
 -4.14969717E-04 -1.88701891E-04  1.12489124E-03 -1.00839626E-06  2.46680627E-06
  3.66252355E-05  1.40078439E-02  4.32327183E-06  1.92445763E-06  1.79384023E-05
  6.68602047E-03  2.11151884E-06 -8.42931837E-07 -5.66881192E-04  5.67701684E-04
  4.91317201E-04 -9.43510236E-08  2.66557103E-07  1.26560095E-05  4.40345366E-06
  1.40356199E-02  1.36716934E-07  6.19202582E-06  2.08915673E-06  6.69926764E-03
 -2.82812687E-07 -3.30508517E-05  3.33249793E-05  3.08714125E-07  4.93251219E-04
  4.34065886E-08 -1.86892519E-07  4.18581588E-06 -1.09211170E-03  1.86560208E-02
 -5.87556132E-08  1.92705924E-06 -5.21287274E-04  8.90460306E-03  2.35359880E-07
  2.33139109E-07 -4.70668442E-07 -3.81010648E-05  6.55612512E-04  8.74436469E-04
 -5.04417017E-02  9.55443056E-02 -2.55282242E-01  1.75360010E-04  6.71352662E-05
  9.86977663E-02 -1.29070867E-01  9.58968965E-05  3.37950076E-05  1.44674924E-02
 -6.61231615E-03 -6.61161152E-03 -1.70593261E-05 -5.91319237E-06 -1.22304551E-07
  2.03291988E-01 -1.12252101E-02  3.01325386E-02 -2.26803567E-01  1.65233283E-04
  5.88706443E-05  3.44512071E-02 -1.14119118E-01  8.88892690E-05  2.93431526E-05
  1.26852779E-02 -6.14733337E-03 -6.14602057E-03 -1.52181938E-05 -5.31585536E-06
 -1.48876015E-07  1.61683471E-01  1.37320148E-01 -5.41504846E-02  1.03396687E-01
  8.57797482E-02  1.19513709E-01  2.16700807E-01  9.78545800E-02  4.20004769E-02
  5.70422795E-02  1.03432911E-01 -4.53976116E-03 -2.57662569E-03  8.12745428E-03
  4.20297837E-03  7.61966437E-03  9.79649137E-03 -2.15719174E-02 -3.86267557E-02
  2.08580203E-01 -1.01184204E-02  2.97611886E-02  7.10979447E-02  1.01031740E-01
  1.83193012E-01  2.66902635E-02  3.53767530E-02  4.82202884E-02  8.74390684E-02
 -3.93852137E-03 -2.50645518E-03  6.54217411E-03  3.55247052E-03  6.44137517E-03
  8.28170230E-03 -3.72252806E-02 -3.84788341E-02  1.55521513E-01  1.25518783E-01
 -5.41514321E-02  1.03398905E-01  8.56745177E-02  1.27836552E-01 -2.11942498E-01
  9.78536585E-02  4.19521748E-02  6.10151928E-02 -1.01160535E-01 -4.54609303E-03
 -1.90238097E-03  7.45961585E-03  4.49021044E-03 -7.44396567E-03 -1.02488262E-02
 -2.15715915E-02 -3.86255456E-02 -2.15262899E-02 -3.90040766E-02  2.08581771E-01
 -1.01182384E-02  2.97614822E-02  7.10106692E-02  1.08065351E-01 -1.79164092E-01
  2.66879043E-02  3.53367805E-02  5.15777861E-02 -8.55156643E-02 -3.94397312E-03
 -1.93635070E-03  5.97756185E-03  3.79520844E-03 -6.29278693E-03 -8.66376394E-03
 -3.72266758E-02 -3.84789875E-02 -3.90017283E-02 -3.89254038E-02  1.55518751E-01
  1.25513628E-01 -5.41479174E-02  1.03394802E-01  8.54573139E-02 -2.47534321E-01
 -4.82684536E-03  9.78454860E-02  4.18520722E-02 -1.18151587E-01 -2.30454500E-03
 -4.55986227E-03  1.28190980E-02 -7.24775561E-03 -8.67337845E-03 -1.69521367E-04
  4.52271381E-04 -2.15673358E-02 -3.86303719E-02 -2.15259221E-02 -3.90005073E-02
 -2.15261341E-02 -3.89995385E-02  2.08578849E-01 -1.01191422E-02  2.97639499E-02
  7.08354071E-02 -2.09264933E-01 -4.08161561E-03  2.66865749E-02  3.52562899E-02
 -9.98858710E-02 -1.94906157E-03 -3.95605968E-03  1.05091452E-02 -6.45548517E-03
 -7.33299948E-03 -1.43431617E-04  3.82309704E-04 -3.72266017E-02 -3.84873148E-02
 -3.90021226E-02 -3.89241890E-02 -3.90009511E-02 -3.89219099E-02  1.55530183E-01
  1.25532632E-01
Pure Switching                             I                1
Dipole_Data                                R   N=           3
  3.81504719E-02 -1.23458507E-05 -2.59269036E-05
Quadrupole_Data                            R   N=           6
 -8.26843780E+00  1.53744060E-04 -8.29239480E+00  2.59699471E-05 -1.77206646E-05
 -8.29242617E+00
Octapole_Data                              R   N=          10
 -7.08620653E-01  1.14286202E-03  4.58162874E-01 -5.52175937E-01  4.13897621E-04
  1.23418580E-04 -3.22737739E-02  4.59003057E-01  5.51024441E-01  3.17344913E-02
Hexadecapole_Data                          R   N=          15
 -1.55264721E+01 -4.21064276E-04 -5.40768144E+00 -3.17244414E-01 -1.51234621E+01
 -2.23816453E-04  1.34333689E-04 -1.84604400E-02  8.09221598E-05 -5.40662936E+00
  3.18288211E-01 -5.04179348E+00  1.87817255E-02 -2.89650055E-04 -1.51238468E+01
