Jobname.Temp
SP        R                             6-31G(d)            
Number of atoms                            I                5
Charge                                     I                0
Multiplicity                               I                1
Number of electrons                        I               10
Number of alpha electrons                  I                5
Number of beta electrons                   I                5
Atomic numbers                             I   N=           5
           6           1           1           1           1
Current cartesian coordinates              R   N=          15
 -5.79197562E-06 -4.27569081E-06  4.72296790E-02  2.42007789E-04 -9.56999615E-05
  1.64086207E+00 -9.41514703E-01  1.70530594E+00 -6.41255245E-01 -1.00619441E+00
 -1.66788333E+00 -6.41389164E-01  1.94750186E+00 -3.73012510E-02 -6.41595739E-01
Nuclear charges                            R   N=           5
  6.00000000E+00  1.00000000E+00  1.00000000E+00  1.00000000E+00  1.00000000E+00
Number of basis functions                  I               23
Number of contracted shells                I               12
Number of primitive shells                 I               27
Highest angular momentum                   I                2
Largest degree of contraction              I                6
Shell types                                I   N=          12
           0          -1          -1           2           0           0
           0           0           0           0           0           0
Number of primitives per shell             I   N=          12
           6           3           1           1           3           1
           3           1           3           1           3           1
Shell to atom map                          I   N=          12
           1           1           1           1           2           2
           3           3           4           4           5           5
Primitive exponents                        R   N=          27
  3.04752490E+03  4.57369510E+02  1.03948690E+02  2.92101550E+01  9.28666300E+00
  3.16392700E+00  7.86827240E+00  1.88128850E+00  5.44249300E-01  1.68714400E-01
  8.00000000E-01  1.87311370E+01  2.82539370E+00  6.40121700E-01  1.61277800E-01
  1.87311370E+01  2.82539370E+00  6.40121700E-01  1.61277800E-01  1.87311370E+01
  2.82539370E+00  6.40121700E-01  1.61277800E-01  1.87311370E+01  2.82539370E+00
  6.40121700E-01  1.61277800E-01
Contraction coefficients                   R   N=          27
  1.83470016E-03  1.40373012E-02  6.88426061E-02  2.32184421E-01  4.67941342E-01
  3.62312032E-01 -1.19332409E-01 -1.60854212E-01  1.14345648E+00  1.00000000E+00
  1.00000000E+00  3.34945995E-02  2.34726947E-01  8.13757318E-01  1.00000000E+00
  3.34945995E-02  2.34726947E-01  8.13757318E-01  1.00000000E+00  3.34945995E-02
  2.34726947E-01  8.13757318E-01  1.00000000E+00  3.34945995E-02  2.34726947E-01
  8.13757318E-01  1.00000000E+00
P(S=P) Contraction coefficients            R   N=          27
  0.00000000E+00  0.00000000E+00  0.00000000E+00  0.00000000E+00  0.00000000E+00
  0.00000000E+00  6.89990956E-02  3.16423980E-01  7.44308252E-01  1.00000000E+00
  0.00000000E+00  0.00000000E+00  0.00000000E+00  0.00000000E+00  0.00000000E+00
  0.00000000E+00  0.00000000E+00  0.00000000E+00  0.00000000E+00  0.00000000E+00
  0.00000000E+00  0.00000000E+00  0.00000000E+00  0.00000000E+00  0.00000000E+00
  0.00000000E+00  0.00000000E+00
Coordinates of each shell                  R   N=          36
 -5.79197562E-06 -4.27569081E-06  4.72296790E-02 -5.79197562E-06 -4.27569081E-06
  4.72296790E-02 -5.79197562E-06 -4.27569081E-06  4.72296790E-02 -5.79197562E-06
 -4.27569081E-06  4.72296790E-02  2.42007789E-04 -9.56999615E-05  1.64086207E+00
  2.42007789E-04 -9.56999615E-05  1.64086207E+00 -9.41514703E-01  1.70530594E+00
 -6.41255245E-01 -9.41514703E-01  1.70530594E+00 -6.41255245E-01 -1.00619441E+00
 -1.66788333E+00 -6.41389164E-01 -1.00619441E+00 -1.66788333E+00 -6.41389164E-01
  1.94750186E+00 -3.73012510E-02 -6.41595739E-01  1.94750186E+00 -3.73012510E-02
 -6.41595739E-01
Overlap Matrix                             R   N=         276
  1.00000000E+00  2.19058872E-01  1.00000000E+00  7.05297653E-23  0.00000000E+00
  1.00000000E+00  4.23616518E-22 -5.73243237E-22  0.00000000E+00  1.00000000E+00
  1.65621580E-18 -4.25512541E-19  0.00000000E+00 -2.60504155E-39  1.00000000E+00
  1.84261053E-01  8.12273068E-01  0.00000000E+00 -6.78680793E-22  3.51776958E-18
  1.00000000E+00  4.43591648E-23  0.00000000E+00  5.69754058E-01  0.00000000E+00
  0.00000000E+00  0.00000000E+00  1.00000000E+00  4.42856697E-23 -6.36314012E-22
  0.00000000E+00  5.69754058E-01 -4.15560998E-39  0.00000000E+00  0.00000000E+00
  1.00000000E+00 -3.71741689E-19  5.48188754E-18  0.00000000E+00 -4.15560998E-39
  5.69754058E-01  0.00000000E+00  0.00000000E+00  0.00000000E+00  1.00000000E+00
  7.91027073E-02  7.10235064E-01  0.00000000E+00  1.53891061E-23  6.78418551E-18
  6.29936196E-01  0.00000000E+00  0.00000000E+00  0.00000000E+00  1.00000000E+00
  7.91027073E-02  7.10235064E-01  0.00000000E+00  4.61673183E-23  6.78418551E-18
  6.29936196E-01  0.00000000E+00  0.00000000E+00  0.00000000E+00  3.33333333E-01
  1.00000000E+00  7.91027073E-02  7.10235064E-01  0.00000000E+00  1.53891061E-23
  2.03525565E-17  6.29936196E-01  0.00000000E+00  0.00000000E+00  0.00000000E+00
  3.33333333E-01  3.33333333E-01  1.00000000E+00  5.98242407E-43  0.00000000E+00
  2.66547136E-23  0.00000000E+00  0.00000000E+00  0.00000000E+00  0.00000000E+00
  0.00000000E+00  0.00000000E+00  0.00000000E+00  0.00000000E+00  0.00000000E+00
  1.00000000E+00 -9.80180480E-39  0.00000000E+00  1.17505540E-17  0.00000000E+00
  0.00000000E+00  0.00000000E+00  0.00000000E+00  0.00000000E+00  0.00000000E+00
 -3.25762550E-38 -1.08587517E-38 -3.25762550E-38  0.00000000E+00  1.00000000E+00
 -9.80160360E-39  9.88489666E-40  0.00000000E+00  1.17505540E-17  2.66547136E-23
  0.00000000E+00  0.00000000E+00  0.00000000E+00  0.00000000E+00  0.00000000E+00
  0.00000000E+00  0.00000000E+00 -1.88079096E-38  0.00000000E+00  1.00000000E+00
  8.70566191E-02  4.51648092E-01  8.04403542E-05 -2.96779971E-05  5.17322340E-01
  4.75511875E-01  7.82005846E-05 -2.88516473E-05  5.02918092E-01  2.18938869E-01
  2.18938860E-01  6.30726942E-01 -6.36239308E-09  1.10903983E-04 -4.09173743E-05
  1.00000000E+00  1.20213364E-01  5.86092615E-01  3.97129126E-05 -1.46518463E-05
  2.55398886E-01  8.10752917E-01  8.06615193E-05 -2.97595947E-05  5.18744681E-01
  4.41510923E-01  4.41510922E-01  5.02191263E-01 -9.37550646E-10  1.63426087E-05
 -6.02950968E-06  6.58292049E-01  1.00000000E+00  3.22670405E-02  2.71611275E-01
 -1.67360657E-01  3.03132381E-01 -1.22383642E-01  3.75719756E-01 -2.34577493E-01
  4.24879033E-01 -1.71536420E-01  1.86492693E-01  3.46075657E-01  1.53936806E-01
 -2.19518095E-01  8.86260443E-02 -1.60524130E-01  3.95354937E-02  2.01893551E-01
  1.00000000E+00  9.18331960E-02  4.74645936E-01 -1.21075804E-01  2.19298834E-01
 -8.85375221E-02  7.03035538E-01 -2.65753322E-01  4.81346325E-01 -1.94333960E-01
  3.66871161E-01  4.05171200E-01  3.59057723E-01 -5.26845182E-02  2.12703215E-02
 -3.85259195E-02  2.01893551E-01  4.83830307E-01  6.58292049E-01  1.00000000E+00
  3.22688893E-02  2.71619422E-01 -1.78864124E-01 -2.96488869E-01 -1.22411646E-01
  3.75724947E-01 -2.50695956E-01 -4.15558799E-01 -1.71572164E-01  1.96444507E-01
  3.36122179E-01  1.53957194E-01  2.29458590E-01  9.47367904E-02  1.57037662E-01
  3.95389034E-02  2.01900413E-01  1.80275534E-02  1.47834879E-01  1.00000000E+00
  9.18346470E-02  4.74651812E-01 -1.29395132E-01 -2.14488045E-01 -8.85558870E-02
  7.03041419E-01 -2.84012400E-01 -4.70784825E-01 -1.94373387E-01  3.69262814E-01
  4.02784644E-01  3.59066105E-01  5.50687293E-02  2.27362796E-02  3.76881271E-02
  2.01900413E-01  4.83840425E-01  1.47834879E-01  3.99365003E-01  6.58292049E-01
  1.00000000E+00  3.22647783E-02  2.71601305E-01  3.46170358E-01 -6.62955406E-03
 -1.22439027E-01  3.75713404E-01  4.85214435E-01 -9.29240548E-03 -1.71618343E-01
  4.15891349E-01  1.16624206E-01  1.53966691E-01 -9.93055265E-03 -1.83404070E-01
  3.51239548E-03  3.95426078E-02  2.01907866E-01  1.80245548E-02  1.47825061E-01
  1.80244188E-02  1.47824615E-01  1.00000000E+00  9.18314205E-02  4.74638745E-01
  2.50440891E-01 -4.79622645E-03 -8.85799094E-02  7.03028343E-01  5.49704123E-01
 -1.05274560E-02 -1.94428079E-01  4.21924870E-01  3.50098097E-01  3.59060625E-01
 -2.38342085E-03 -4.40186061E-02  8.43006117E-04  2.01907866E-01  4.83851417E-01
  1.47825061E-01  3.99348667E-01  1.47824615E-01  3.99347926E-01  6.58292049E-01
  1.00000000E+00
Core Hamiltonian Matrix                    R   N=         276
 -2.00247244E+01 -4.11597840E+00 -6.84912314E+00 -2.46461054E-06 -1.40266439E-05
 -6.09285832E+00  1.32093152E-06  7.60038154E-06 -2.27959340E-06 -6.09285812E+00
 -1.51212321E-02 -8.13687255E-02 -2.09177468E-05  5.23833299E-06 -6.16613888E+00
 -3.54611066E+00 -5.46858261E+00 -1.05287671E-05  5.27555405E-06 -5.27303918E-02
 -5.50953473E+00 -4.13564898E-07 -6.71597517E-06 -3.11029807E+00 -1.51201733E-06
 -1.14221972E-05 -7.13984849E-06 -3.78792328E+00  2.21729500E-07  3.27585900E-06
 -1.51201733E-06 -3.11029634E+00  2.58391275E-06  1.39612159E-06 -1.29130813E-06
 -3.78791646E+00 -2.53719503E-03 -3.10998497E-02 -1.14221972E-05  2.58391275E-06
 -3.13522864E+00 -7.36933622E-03 -7.75697048E-06  1.51654056E-06 -3.76991355E+00
 -1.51235079E+00 -4.48284552E+00 -5.09391310E-02  2.93385647E-03  1.52522092E-02
 -3.82229634E+00 -4.91804852E-02  2.83162994E-03  2.57324246E-02 -4.84851051E+00
 -1.51235081E+00 -4.48284559E+00  5.09410066E-02 -2.93077841E-03  1.52432590E-02
 -3.82229546E+00  4.91875561E-02 -2.83331346E-03  2.57232699E-02 -2.32728784E+00
 -4.84851648E+00 -1.51576324E+00 -4.54809698E+00 -3.24450095E-05  1.36066276E-05
 -2.04158325E-01 -3.86580562E+00 -2.36704770E-05  9.79224812E-06 -1.24522623E-01
 -2.32652074E+00 -2.32651473E+00 -5.00598418E+00 -1.23483892E-07 -3.49212030E-06
  5.08158847E-03  8.82324116E-02  4.59624823E-06 -3.25290847E-06  4.90452692E-03
  8.51953462E-02  4.19282245E-06 -5.96479524E-06  2.13129090E-07 -3.38549511E-06
 -3.78186353E+00 -1.39544227E-06 -3.18422966E-05  2.64176013E-02  4.59624823E-06
 -5.61964050E-05 -2.62650942E-05  4.45698667E-02  4.19282245E-06 -4.09984688E-05
  2.84369883E-02 -2.84592544E-02 -5.75587920E-05 -2.83694868E-03 -3.77956222E+00
  3.80081017E-07  7.94658612E-06  4.59624823E-06  2.64020990E-02  2.35673704E-05
  6.16381118E-06  4.19282245E-06  4.45540103E-02  1.69606713E-05 -1.63791308E-03
  1.63955958E-03  1.78614158E-05 -4.92928745E-02 -5.86384953E-06 -3.77954419E+00
 -1.68228248E+00 -3.10589209E+00 -4.85032622E-04  1.78855086E-04 -3.10185782E+00
 -2.88999690E+00 -3.83187013E-04  1.41078702E-04 -2.44819013E+00 -1.54845288E+00
 -1.54845147E+00 -3.55693482E+00 -5.34671763E-07 -5.44749445E-04  2.00455723E-04
 -4.99548349E+00 -2.31588836E+00 -3.91454760E+00 -2.29488216E-04  8.49638338E-05
 -1.44770793E+00 -4.22168840E+00 -3.03386436E-04  1.10428265E-04 -1.89768690E+00
 -2.67559893E+00 -2.67559606E+00 -3.05616014E+00 -2.12672822E-06 -1.10742188E-04
  3.90438494E-05 -3.52310568E+00 -4.39272905E+00 -6.24088185E-01 -1.75712614E+00
  9.51599489E-01 -1.72358769E+00  6.91009718E-01 -2.00636692E+00  1.04748015E+00
 -1.89725134E+00  7.63871828E-01 -1.15337315E+00 -1.92229380E+00 -9.97116359E-01
  1.05770562E+00 -4.24838222E-01  7.69487222E-01 -3.22470252E-01 -1.12699494E+00
 -4.08590051E+00 -1.76853822E+00 -3.13549085E+00  6.64305824E-01 -1.20323068E+00
  4.62127483E-01 -3.55356133E+00  9.66700255E-01 -1.75094184E+00  7.02213576E-01
 -2.20916099E+00 -2.41247933E+00 -2.18376874E+00  2.79676124E-01 -1.10172809E-01
  1.99533301E-01 -1.28782150E+00 -2.42598424E+00 -2.98879813E+00 -3.93800863E+00
 -6.24123891E-01 -1.75718410E+00  1.01701003E+00  1.68581816E+00  6.91169903E-01
 -2.00640786E+00  1.11946065E+00  1.85564157E+00  7.64034340E-01 -1.20133366E+00
 -1.87434523E+00 -9.97223887E-01 -1.10560293E+00 -4.54130936E-01 -7.52774368E-01
 -3.22495700E-01 -1.12703735E+00 -1.46996183E-01 -8.36862689E-01 -4.08593924E+00
 -1.76856621E+00 -3.13553216E+00  7.09952814E-01  1.17684081E+00  4.62227259E-01
 -3.55359753E+00  1.03312069E+00  1.71252558E+00  7.02356019E-01 -2.22186107E+00
 -2.39981639E+00 -2.18381761E+00 -2.92337692E-01 -1.17766487E-01 -1.95191041E-01
 -1.28786045E+00 -2.42603147E+00 -8.36856937E-01 -1.97029713E+00 -2.98882225E+00
 -3.93803220E+00 -6.24044729E-01 -1.75705863E+00 -1.96829771E+00  3.76953770E-02
  6.91321801E-01 -2.00632069E+00 -2.16666576E+00  4.14941060E-02  7.64232937E-01
 -2.25868182E+00 -8.16714566E-01 -9.97249352E-01  4.78488102E-02  8.79165063E-01
 -1.68367023E-02 -3.22513709E-01 -1.12705178E+00 -1.46973648E-01 -8.36800682E-01
 -1.46973918E-01 -8.36800345E-01 -4.08586173E+00 -1.76850420E+00 -3.13544432E+00
 -1.37410651E+00  2.63174944E-02  4.62355808E-01 -3.55352182E+00 -1.99960639E+00
  3.82946585E-02  7.02550795E-01 -2.50141492E+00 -2.12011679E+00 -2.18378238E+00
  1.26519801E-02  2.27968750E-01 -4.36338554E-03 -1.28789155E+00 -2.42605360E+00
 -8.36806586E-01 -1.97022199E+00 -8.36812001E-01 -1.97022682E+00 -2.98877427E+00
 -3.93798693E+00
Number of independent functions            I               23
Alpha MO coefficients                      R   N=         529
  9.92567283E-01  5.17694433E-02  6.80079971E-08 -5.03539913E-08  7.88382856E-04
 -1.66381441E-02 -2.05355097E-07  7.42330277E-08 -8.68896404E-04 -1.00536415E-02
 -1.00535005E-02 -9.33865786E-03  1.52423640E-08  1.84222514E-07 -4.75949065E-08
 -4.19743940E-04  4.40853928E-03 -3.75997133E-05  2.57517572E-03 -3.76168554E-05
  2.57524569E-03 -3.74295779E-05  2.57510236E-03  2.04055421E-01 -3.84964415E-01
 -1.35879391E-05  7.15356528E-06 -7.42103527E-02 -3.16975065E-01 -2.50168728E-06
 -1.34591241E-06 -1.49511460E-03  3.14753551E-03  3.14939901E-03 -7.65935971E-03
 -1.88315566E-07 -4.58890797E-06  7.11835795E-07 -1.97903725E-01 -5.06275573E-02
 -1.20979339E-01 -3.17200060E-02 -1.20983510E-01 -3.17227201E-02 -1.20978704E-01
 -3.17230549E-02 -1.04394450E-02  1.85824545E-02 -1.85803639E-04  3.25211933E-05
 -4.83658508E-01  8.41369168E-02 -7.21045251E-05  1.16082409E-05 -1.80371287E-01
  1.89239264E-02  1.89356344E-02 -3.01213143E-02 -2.85712838E-07 -4.04417348E-06
  3.47231521E-06 -2.80381929E-01 -1.95008023E-01  1.16623076E-01  9.47137545E-02
  1.16616051E-01  9.47077098E-02  1.16500762E-01  9.46178330E-02  3.95604328E-07
  4.01670518E-06 -3.78149726E-01 -2.37807259E-01  1.41069582E-04 -3.32972850E-05
 -1.83799673E-01 -1.15582757E-01  5.18672579E-05 -1.46598504E-02  1.46514690E-02
  7.05056774E-06  1.20535385E-02  7.59113095E-03  4.77336091E-03  6.40343004E-05
  6.36844130E-05 -1.57206189E-02 -1.32589789E-02  2.46219703E-01  2.07612939E-01
 -2.30577581E-01 -1.94434331E-01  5.61220650E-07 -1.86426823E-06  2.37804212E-01
 -3.78153499E-01 -1.27849676E-04  1.12076957E-05  1.15583083E-01 -1.83797254E-01
 -5.53406131E-05  1.04417856E-02 -1.04357658E-02 -4.07206518E-06  1.69233223E-02
 -4.77313647E-03  7.58960601E-03 -4.69035454E-05 -3.95823923E-05 -2.75260815E-01
 -2.32108880E-01  1.24068995E-01  1.04618897E-01  1.51248246E-01  1.27543288E-01
  1.55721772E-01 -1.75108990E-01 -2.56159050E-05 -1.26814058E-05  1.09472699E-01
 -2.78320573E+00 -1.03642692E-04 -2.54459675E-05  2.42985059E-01  1.66426931E-02
  1.66404704E-02  9.77637238E-03 -1.17308499E-07 -4.36190248E-06 -2.79397279E-07
 -3.73391805E-02  8.46275300E-01  2.32509412E-02  1.08951493E+00  2.32477330E-02
  1.08948865E+00  2.32709049E-02  1.08969695E+00  1.57294692E-05 -1.80235153E-05
  3.77231585E-01 -8.42124891E-02 -4.45550316E-05 -3.43607864E-04  1.31902981E+00
 -2.94426352E-01 -1.74394634E-04 -1.36175889E-02  1.36253251E-02 -8.63585800E-07
 -2.57507857E-03  1.84868121E-02 -4.12529878E-03  1.38340991E-05  1.48524114E-04
  8.01082783E-02  1.16489690E+00  3.83966581E-02  5.58490327E-01 -1.18522674E-01
 -1.72306963E+00  4.96452589E-06 -9.23133372E-06  8.42079410E-02  3.77235190E-01
  9.15185419E-06 -1.17776952E-04  2.94459715E-01  1.31901896E+00  4.59509719E-05
 -2.22683327E-03  2.22646296E-03  5.62078425E-07  1.57371691E-02  4.12799916E-03
  1.84841770E-02 -3.87987451E-06  2.89610403E-05 -9.06056905E-02 -1.31721297E+00
  1.14682199E-01  1.66744588E+00 -2.40815152E-02 -3.50093926E-01 -2.95800863E-02
  8.74710172E-03  4.92230792E-05 -2.28097494E-05  3.15986171E-01  1.62354218E+00
  3.35325080E-04 -9.75119622E-05  1.74433746E+00 -9.11405541E-04 -9.13715613E-04
 -2.11277921E-02  8.56439733E-07 -3.38610099E-06  6.13913239E-07 -3.27819513E-02
 -3.28881795E+00  5.18825030E-02  4.43325216E-01  5.18899460E-02  4.43312326E-01
  5.18872207E-02  4.43140644E-01  9.42471039E-03  7.53186540E-02  3.03573358E-05
  1.10146594E-06  6.31755735E-01 -8.39338330E-01 -2.42820961E-04  5.07333966E-05
 -1.69335875E+00 -4.35818885E-02 -4.35774198E-02  4.71744645E-02 -2.75933713E-06
  1.47874753E-05 -6.41107344E-06  4.95730558E-01  8.59254520E-01 -1.43891730E-01
 -2.83235394E-03 -1.43926076E-01 -2.80258907E-03 -1.43938555E-01 -2.66849563E-03
  7.04521952E-07  1.39782825E-07 -2.86539623E-01 -7.03956191E-01  1.34815021E-05
 -3.50321225E-05  5.45286409E-01  1.33960160E+00 -2.63877331E-05 -2.36555341E-02
  2.36510477E-02  2.99003450E-07  8.00116072E-02  2.18955810E-02  5.37713402E-02
  1.13367598E-05  1.71586399E-05 -2.96987541E-01 -1.28395733E-01  4.66654621E-01
  2.01801939E-01 -1.69681477E-01 -7.33861936E-02 -4.64049715E-07 -3.92667023E-06
  7.03974028E-01 -2.86536071E-01 -6.66477130E-05 -4.60850652E-05 -1.33963404E+00
  5.45251525E-01 -4.83455235E-06  6.92723771E-02 -6.92956122E-02  1.56998272E-05
  2.73234868E-02 -5.37847919E-02  2.18833200E-02  2.74756055E-05  1.64782515E-04
 -3.67399611E-01 -1.58896816E-01 -7.35088136E-02 -3.18396551E-02  4.40876346E-01
  1.90636275E-01  1.42609738E-05 -1.96214282E-04 -8.04305728E-01  2.80768418E-01
  2.81212019E-04  2.92062214E-04  1.17037606E+00 -4.08561994E-01 -4.27095890E-04
  1.35134488E-01 -1.35137249E-01 -1.41844317E-05  4.46035664E-02 -1.25335109E-01
  4.37336538E-02 -6.59635945E-05  2.92399511E-04 -6.18969733E-01  1.20399314E+00
 -1.70619170E-01  3.31902628E-01  7.90048303E-01 -1.53662930E+00 -1.00563798E-05
  1.41553429E-04  2.80772433E-01  8.04319347E-01 -8.58263362E-05 -2.20340368E-04
 -4.08561934E-01 -1.17040930E+00  1.36111347E-04 -3.86161234E-02  3.86032929E-02
  2.73455242E-05  1.56062626E-01  4.37609997E-02  1.25309249E-01  2.22923466E-05
 -1.30066887E-04 -5.54735578E-01  1.07898540E+00  8.13390133E-01 -1.58217738E+00
 -2.58960841E-01  5.03648395E-01 -6.89057254E-02  7.70750307E-01 -3.34985359E-04
 -3.30734037E-05 -5.91415008E-01 -1.05062183E+00  5.05114660E-04  3.54721243E-05
  9.58579090E-01 -4.05051023E-02 -4.05820631E-02  1.64366665E-01 -1.89370070E-05
 -2.35493740E-05 -1.74315473E-05  1.20416885E-01 -9.38694469E-01 -6.48858906E-01
  8.88961122E-01 -6.48968605E-01  8.89175908E-01 -6.48539631E-01  8.88334055E-01
 -1.19182314E-01 -1.87310365E+00  2.58328169E-05 -8.65116785E-06  1.72558174E-01
  5.96484581E+00  6.15359766E-05 -4.03725596E-05  2.34403810E-01 -8.83611915E-02
 -8.83016195E-02 -9.90436413E-02 -8.28064471E-06 -3.20274927E-05  1.34940678E-05
 -4.09894165E-01 -1.74165265E+00 -4.23367206E-01 -9.23846989E-01 -4.23361419E-01
 -9.23901109E-01 -4.23412149E-01 -9.23808384E-01  3.22168680E-02 -1.04937150E+00
 -1.34893007E-04  5.54242178E-05 -7.93834677E-01  2.06475325E+00  1.78958992E-04
 -7.25206597E-05  1.05227359E+00 -1.94627661E-01 -1.94654214E-01  2.46378074E-01
  5.95861896E-06  8.13344990E-05 -2.78501284E-05  1.06641948E+00 -2.07219922E+00
  1.89669418E-01 -9.63177006E-02  1.89689353E-01 -9.63491258E-02  1.89725982E-01
 -9.63968574E-02 -9.89056154E-06 -9.37581277E-05 -2.09294053E-02  3.04908381E-04
  2.07077515E-05  3.57482401E-04  2.93488571E-03 -4.27619929E-05  8.46400888E-06
  4.87150181E-01 -4.86941135E-01 -2.03309391E-04 -2.41730104E-02  8.26246361E-01
 -1.21129234E-02 -6.11529772E-05 -9.42646931E-05 -1.25681986E-02  7.75785509E-03
 -1.27689251E-02  7.88323366E-03  2.51566682E-02 -1.57850783E-02  3.69497073E-06
  2.90127839E-05 -3.07762994E-04 -2.09302594E-02 -4.12032370E-06 -1.16746181E-04
  4.58640292E-05  2.93303759E-03 -1.82051295E-06 -2.08953015E-02  2.08217485E-02
  7.62655079E-05 -5.62211359E-01  1.20603458E-02  8.26372647E-01  1.49909394E-05
  3.15929703E-05  2.19278406E-02 -1.36535878E-02 -2.17741729E-02  1.36150308E-02
 -9.72564350E-05  8.55434847E-05  3.03971213E-06 -2.70375297E-05  1.54848818E-01
 -2.22976896E-02 -7.54907616E-06  2.39162696E-05  4.25524052E-01 -6.12734648E-02
  1.47045953E-05  8.04060629E-01 -8.04216980E-01  1.73129797E-04  7.96476701E-02
 -6.30314450E-01  9.07037276E-02 -1.54422350E-05 -6.67547989E-05  4.71207184E-01
 -5.41556637E-02  3.04046895E-01 -3.49296828E-02 -7.75191622E-01  8.91137294E-02
 -1.55397697E-06  9.49911781E-06 -2.23058422E-02 -1.54869653E-01  6.83210607E-07
  3.09689301E-05 -6.12885823E-02 -4.25511220E-01 -2.08999214E-06 -6.89309608E-02
  6.88794855E-02  5.27071390E-05  9.28676056E-01  9.08165469E-02  6.30129682E-01
 -2.64143824E-05 -1.13296718E-05  6.23110495E-01 -7.16384475E-02 -7.19642256E-01
  8.27224362E-02  9.65095806E-02 -1.10908743E-02 -1.04485594E-02  3.79229775E-01
  9.13401038E-05 -2.86332241E-05  6.24159811E-01  2.50766132E-01  9.37476315E-05
 -2.50417730E-05  4.31584006E-01 -6.49754712E-01 -6.49744899E-01  1.27853349E+00
 -1.59245840E-05  3.21590431E-04 -1.32641667E-04 -1.51859392E+00  9.67724470E-02
  2.27380671E-01 -7.30398058E-02  2.27410800E-01 -7.30583846E-02  2.27412021E-01
 -7.31087217E-02  4.98877959E-01 -2.85762204E+00  1.61179721E-05 -8.88591970E-06
  1.13932372E-01 -2.80111613E+00 -2.87516738E-05  1.11803479E-05 -1.01422060E-01
  1.85566119E+00  1.85567919E+00  2.01077405E+00  1.56022483E-06  3.02705711E-05
 -8.91386310E-06 -3.41222634E-01  8.37950003E-01 -1.10404356E-01  4.93549218E-01
 -1.10411533E-01  4.93563967E-01 -1.10384889E-01  4.93539388E-01
Alpha Orbital Energies                     R   N=          23
 -1.01422479E+01 -7.18692393E-01 -4.25722958E-01 -3.87650788E-01 -3.87646978E-01
  1.24840130E-01  1.75902187E-01  1.75910461E-01  2.32903487E-01  4.71603687E-01
  5.38310873E-01  5.38318372E-01  8.96768796E-01  8.96783702E-01  9.37826888E-01
  1.11889644E+00  1.23915799E+00  1.63905437E+00  1.63907149E+00  2.23764789E+00
  2.23767615E+00  2.57905363E+00  4.22147675E+00
Total SCF Density                          R   N=         276
  2.05387482E+00 -5.47268216E-02  3.02445968E-01 -1.56328060E-06 -3.61081379E-07
  3.99096187E-01  1.52787142E-06 -4.80474674E-06  4.97637007E-07  3.99104724E-01
 -1.86227508E-02  3.92431955E-02  1.42506301E-05 -2.92125691E-06  4.78866773E-01
 -1.64146601E-01  2.45452487E-01  7.85911496E-06  8.29935129E-06 -3.43676553E-02
  2.15658084E-01  6.11505719E-08 -2.68239313E-06  1.93979907E-01  1.49366626E-06
 -1.12926931E-05  4.29037382E-06  9.42835483E-02 -9.42037791E-07  1.23213304E-06
 -3.50708928E-07  1.93979988E-01  3.35744566E-06  6.38143098E-06  4.37763790E-07
  9.42816091E-02  1.43090347E-03 -5.64231458E-03  1.52015541E-06  5.43258979E-06
  1.74696780E-01 -2.93750309E-02 -5.84023800E-06  4.16929299E-06  6.50735946E-02
 -1.90683983E-02 -2.76117187E-03  1.60463188E-02 -9.23480943E-04 -1.87952538E-02
  1.52477930E-03  7.79999834E-03 -4.49061804E-04 -6.82128309E-03  1.58607956E-03
 -1.90676026E-02 -2.76184360E-03 -1.60513596E-02  9.25469019E-04 -1.87932472E-02
  1.52314342E-03 -7.80100869E-03  4.49645472E-04 -6.82016110E-03  2.91134629E-04
  1.58624117E-03 -2.10354607E-02  3.81079180E-03  4.13113021E-06 -2.34142613E-06
  3.02589456E-02  9.77783743E-05  8.52816457E-07 -8.13059083E-07  1.09051735E-02
 -1.00076001E-03 -1.00091315E-03  2.10633992E-03 -1.20978139E-08  1.69681067E-07
 -1.06720983E-03 -1.85320650E-02 -6.22158407E-07 -3.52559850E-07 -5.18773312E-04
 -9.00728280E-03 -5.19120677E-07  9.57421506E-10 -2.38763517E-08  5.19549963E-08
  8.63373261E-04 -1.42199016E-06  3.48068489E-06 -8.01131047E-03 -4.95894606E-07
  7.95562050E-06  1.60996017E-06 -3.89388183E-03 -2.29016101E-07  2.78806619E-06
 -3.22435478E-04  3.21879341E-04  4.56403664E-07  2.14453289E-05  1.60816277E-04
  1.35823137E-07 -4.13894302E-07 -4.11003532E-07 -8.01035164E-03 -4.05846108E-06
 -1.31407500E-08 -2.24734666E-07 -3.89333384E-03 -1.59952238E-06  1.86814213E-05
 -1.83962607E-05 -2.13697795E-07  3.71954475E-04  1.79303737E-08  1.60774213E-04
 -7.57458409E-02  1.41907956E-01  3.88332882E-05 -1.60502653E-05  3.00590589E-01
  7.82941127E-02  7.04249073E-06 -3.53785837E-06  1.01738217E-01 -1.18520891E-02
 -1.18536798E-02  1.99304170E-02  1.90893525E-07  5.50393520E-06 -2.32950003E-06
  2.35560186E-01 -7.83856029E-03  3.21886165E-02  6.85264274E-06 -1.37613574E-05
  1.96155736E-01 -8.66106018E-04 -4.18703870E-06 -4.56183523E-06  7.04914340E-02
 -7.79067661E-03 -7.79004422E-03  1.24410068E-02  3.26148787E-07  3.38830501E-06
 -1.41960746E-06  1.29388527E-01  8.12214388E-02 -5.18829022E-02  9.74767739E-02
 -1.19066917E-01  2.15664490E-01 -9.47897577E-02  9.63156078E-02 -5.78683109E-02
  1.04821462E-01 -4.16802519E-02 -1.63438947E-03  8.93984991E-03 -5.16970975E-03
 -9.69565426E-03  2.38920735E-03 -4.32768498E-03 -1.74896426E-02 -3.32156370E-02
  2.08505196E-01 -9.81099714E-03  2.82095650E-02 -1.00399514E-01  1.81857439E-01
 -8.68506510E-02  3.59567364E-02 -4.87952288E-02  8.83892530E-02 -3.40525939E-02
 -1.12526025E-03  7.79129384E-03 -5.26628967E-03 -8.17578411E-03  2.01399942E-03
 -3.64919733E-03 -4.05391220E-02 -3.36886796E-02  1.57964194E-01  1.28067636E-01
 -5.18838365E-02  9.74803382E-02 -1.27247615E-01 -2.10934060E-01 -9.48105479E-02
  9.63085781E-02 -6.18458599E-02 -1.02521552E-01 -4.16947312E-02 -9.75260617E-04
  8.28055421E-03 -5.16878086E-03  1.01349355E-02  2.55394265E-03  4.23449820E-03
 -1.74879657E-02 -3.32107247E-02 -1.95708592E-02 -3.43589847E-02  2.08507144E-01
 -9.81128694E-03  2.82119560E-02 -1.07294255E-01 -1.77862026E-01 -8.68681854E-02
  3.59502765E-02 -5.21475315E-02 -8.64479994E-02 -3.40647628E-02 -5.69327573E-04
  7.23521812E-03 -5.26551306E-03  8.54589768E-03  2.15283954E-03  3.57066770E-03
 -4.05379589E-02 -3.36845714E-02 -3.43569710E-02 -3.41054225E-02  1.57961252E-01
  1.28061519E-01 -5.18794429E-02  9.74684408E-02  2.46280633E-01 -4.71821574E-03
 -9.48412127E-02  9.63184861E-02  1.19707450E-01 -2.29340935E-03 -4.17056248E-02
  1.35675560E-02 -6.26261924E-03 -5.16885739E-03 -4.39326872E-04 -4.94437825E-03
  9.52060003E-05 -1.74888305E-02 -3.32291258E-02 -1.95705822E-02 -3.43545287E-02
 -1.95704742E-02 -3.43525340E-02  2.08500657E-01 -9.81012396E-03  2.82055434E-02
  2.07676942E-01 -3.98039072E-03 -8.69004917E-02  3.59626576E-02  1.00944139E-01
 -1.93541767E-03 -3.40765826E-02  1.16939204E-02 -5.02781821E-03 -5.26594686E-03
 -3.70373099E-04 -4.16998918E-03  8.04078160E-05 -4.05410667E-02 -3.37025085E-02
 -3.43573627E-02 -3.41028640E-02 -3.43551360E-02 -3.40992669E-02  1.57967327E-01
  1.28075034E-01
Pure Switching                             I                1
Dipole_Data                                R   N=           3
 -1.52378952E-05 -3.14601086E-05  9.35836435E-02
Quadrupole_Data                            R   N=           6
 -8.00654025E+00  1.53395318E-05 -8.00660206E+00  9.46277772E-05 -2.69463948E-05
 -8.16084366E+00
Octapole_Data                              R   N=          10
  5.26683207E-01 -3.03460678E-02 -5.26843076E-01  3.02758812E-02 -9.97723873E-02
 -2.15473448E-05 -9.96616153E-02  1.17858504E-04 -7.46298439E-05  9.99702676E-01
Hexadecapole_Data                          R   N=          15
 -1.48344616E+01  5.91232860E-05 -4.94463945E+00 -2.05551348E-05 -1.48338894E+01
 -2.95861869E-01  1.70331880E-02  2.96042903E-01 -1.70706422E-02 -4.58111067E+00
  3.12095862E-05 -4.58113204E+00  2.35473157E-04 -5.52505710E-05 -1.19839490E+01
