Jobname.Temp
SP        R                             6-31G(d)            
Number of atoms                            I                5
Charge                                     I                0
Multiplicity                               I                1
Number of electrons                        I               10
Number of alpha electrons                  I                5
Number of beta electrons                   I                5
Atomic numbers                             I   N=           5
           6           1           1           1           1
Current cartesian coordinates              R   N=          15
  2.83593693E-02  7.15010065E-06 -3.88347913E-06 -2.32116344E+00  5.03075769E-04
  1.88215148E-04  7.17426596E-01  9.41080865E-01  1.70531136E+00  7.17114992E-01
  1.00612202E+00 -1.66787095E+00  7.16465633E-01 -1.94774886E+00 -3.76053174E-02
Nuclear charges                            R   N=           5
  6.00000000E+00  1.00000000E+00  1.00000000E+00  1.00000000E+00  1.00000000E+00
Number of basis functions                  I               23
Number of contracted shells                I               12
Number of primitive shells                 I               27
Highest angular momentum                   I                2
Largest degree of contraction              I                6
Shell types                                I   N=          12
           0          -1          -1           2           0           0
           0           0           0           0           0           0
Number of primitives per shell             I   N=          12
           6           3           1           1           3           1
           3           1           3           1           3           1
Shell to atom map                          I   N=          12
           1           1           1           1           2           2
           3           3           4           4           5           5
Primitive exponents                        R   N=          27
  3.04752490E+03  4.57369510E+02  1.03948690E+02  2.92101550E+01  9.28666300E+00
  3.16392700E+00  7.86827240E+00  1.88128850E+00  5.44249300E-01  1.68714400E-01
  8.00000000E-01  1.87311370E+01  2.82539370E+00  6.40121700E-01  1.61277800E-01
  1.87311370E+01  2.82539370E+00  6.40121700E-01  1.61277800E-01  1.87311370E+01
  2.82539370E+00  6.40121700E-01  1.61277800E-01  1.87311370E+01  2.82539370E+00
  6.40121700E-01  1.61277800E-01
Contraction coefficients                   R   N=          27
  1.83470016E-03  1.40373012E-02  6.88426061E-02  2.32184421E-01  4.67941342E-01
  3.62312032E-01 -1.19332409E-01 -1.60854212E-01  1.14345648E+00  1.00000000E+00
  1.00000000E+00  3.34945995E-02  2.34726947E-01  8.13757318E-01  1.00000000E+00
  3.34945995E-02  2.34726947E-01  8.13757318E-01  1.00000000E+00  3.34945995E-02
  2.34726947E-01  8.13757318E-01  1.00000000E+00  3.34945995E-02  2.34726947E-01
  8.13757318E-01  1.00000000E+00
P(S=P) Contraction coefficients            R   N=          27
  0.00000000E+00  0.00000000E+00  0.00000000E+00  0.00000000E+00  0.00000000E+00
  0.00000000E+00  6.89990956E-02  3.16423980E-01  7.44308252E-01  1.00000000E+00
  0.00000000E+00  0.00000000E+00  0.00000000E+00  0.00000000E+00  0.00000000E+00
  0.00000000E+00  0.00000000E+00  0.00000000E+00  0.00000000E+00  0.00000000E+00
  0.00000000E+00  0.00000000E+00  0.00000000E+00  0.00000000E+00  0.00000000E+00
  0.00000000E+00  0.00000000E+00
Coordinates of each shell                  R   N=          36
  2.83593693E-02  7.15010065E-06 -3.88347913E-06  2.83593693E-02  7.15010065E-06
 -3.88347913E-06  2.83593693E-02  7.15010065E-06 -3.88347913E-06  2.83593693E-02
  7.15010065E-06 -3.88347913E-06 -2.32116344E+00  5.03075769E-04  1.88215148E-04
 -2.32116344E+00  5.03075769E-04  1.88215148E-04  7.17426596E-01  9.41080865E-01
  1.70531136E+00  7.17426596E-01  9.41080865E-01  1.70531136E+00  7.17114992E-01
  1.00612202E+00 -1.66787095E+00  7.17114992E-01  1.00612202E+00 -1.66787095E+00
  7.16465633E-01 -1.94774886E+00 -3.76053174E-02  7.16465633E-01 -1.94774886E+00
 -3.76053174E-02
Overlap Matrix                             R   N=         276
  1.00000000E+00  2.19058872E-01  1.00000000E+00 -1.18914746E-18 -8.87865561E-19
  1.00000000E+00 -1.63449485E-22 -4.80131983E-22 -1.38467937E-39  1.00000000E+00
  3.31363012E-22 -4.08421633E-22 -2.21418918E-39  1.04246706E-42  1.00000000E+00
  1.84261053E-01  8.12273068E-01  2.98605917E-18 -2.99603121E-22 -7.29018353E-22
  1.00000000E+00 -6.62898577E-19  2.55412620E-18  5.69754058E-01  0.00000000E+00
 -2.07780499E-39  0.00000000E+00  1.00000000E+00 -4.53809414E-23  4.56097568E-23
  0.00000000E+00  5.69754058E-01  0.00000000E+00 -6.95835169E-22  0.00000000E+00
  1.00000000E+00  4.42856697E-23 -6.23565968E-22 -2.07780499E-39  0.00000000E+00
  5.69754058E-01  0.00000000E+00  0.00000000E+00  0.00000000E+00  1.00000000E+00
  7.91027073E-02  7.10235064E-01  2.72466502E-18  8.28147645E-22 -2.21733807E-22
  6.29936196E-01 -5.38622066E-18  0.00000000E+00  0.00000000E+00  1.00000000E+00
  7.91027073E-02  7.10235064E-01  9.08221674E-19  2.48444293E-21 -2.21733807E-22
  6.29936196E-01 -1.79540689E-18  0.00000000E+00  0.00000000E+00  3.33333333E-01
  1.00000000E+00  7.91027073E-02  7.10235064E-01  9.08221674E-19  8.28147645E-22
 -6.65201421E-22  6.29936196E-01 -1.79540689E-18  0.00000000E+00  0.00000000E+00
  3.33333333E-01  3.33333333E-01  1.00000000E+00  7.52232561E-40 -1.32413323E-39
  1.43439380E-21  1.57308608E-18 -6.05238627E-60  0.00000000E+00  0.00000000E+00
 -3.10973595E-18  0.00000000E+00  0.00000000E+00  0.00000000E+00  0.00000000E+00
  1.00000000E+00  0.00000000E+00  1.32413323E-39 -3.84054220E-22 -6.05238627E-60
  1.57308608E-18  0.00000000E+00  0.00000000E+00  0.00000000E+00 -3.10973595E-18
  0.00000000E+00  0.00000000E+00  0.00000000E+00  0.00000000E+00  1.00000000E+00
  0.00000000E+00  3.23274715E-43 -6.05238627E-60 -3.84054220E-22  1.43439380E-21
  0.00000000E+00  0.00000000E+00  0.00000000E+00  0.00000000E+00  0.00000000E+00
  0.00000000E+00  0.00000000E+00  0.00000000E+00  0.00000000E+00  1.00000000E+00
  1.59663463E-02  1.87483688E-01 -2.75180354E-01  5.80837098E-05  2.24989381E-05
  3.16847356E-01 -4.93380398E-01  1.04140297E-04  4.03391263E-05  3.38523666E-01
  7.40808998E-02  7.40808898E-02 -9.66783568E-05 -3.74487162E-05  7.90449005E-09
  1.00000000E+00  7.55666546E-02  4.07377335E-01 -2.57661185E-01  5.43858503E-05
  2.10665587E-05  6.34092648E-01 -5.98148986E-01  1.26254333E-04  4.89050793E-05
  3.84345356E-01  2.95937702E-01  2.95937699E-01 -3.23211970E-05 -1.25197342E-05
  2.64260366E-09  6.58292049E-01  1.00000000E+00  3.22670405E-02  2.71611275E-01
  1.22487150E-01  1.67283297E-01  3.03133274E-01  3.75719756E-01  1.71681501E-01
  2.34469064E-01  4.24880285E-01  1.54000126E-01  1.86428020E-01  3.46077010E-01
  8.86600014E-02  1.60660371E-01  2.19417273E-01  1.05396318E-02  1.19235020E-01
  1.00000000E+00  9.18331960E-02  4.74645936E-01  8.86124049E-02  1.21019839E-01
  2.19299480E-01  7.03035538E-01  1.94498323E-01  2.65630482E-01  4.81347743E-01
  3.59072919E-01  3.66855640E-01  4.05171525E-01  2.12784712E-02  3.85586174E-02
  5.26603209E-02  1.19235020E-01  3.49820663E-01  6.58292049E-01  1.00000000E+00
  3.22688893E-02  2.71619422E-01  1.22435961E-01  1.78851013E-01 -2.96486738E-01
  3.75724947E-01  1.71606243E-01  2.50677581E-01 -4.15555812E-01  1.53972066E-01
  1.96432792E-01  3.36119023E-01  9.47486626E-02 -1.57067726E-01 -2.29440122E-01
  1.05407793E-02  1.19240235E-01  1.80275534E-02  1.47834879E-01  1.00000000E+00
  9.18346470E-02  4.74651812E-01  8.85734768E-02  1.29385647E-01 -2.14486504E-01
  7.03041419E-01  1.94411995E-01  2.83991582E-01 -4.70781441E-01  3.59069675E-01
  3.69260002E-01  4.02783887E-01  2.27391289E-02 -3.76953421E-02 -5.50642972E-02
  1.19240235E-01  3.49830091E-01  1.47834879E-01  3.99365003E-01  6.58292049E-01
  1.00000000E+00  3.22647783E-02  2.71601305E-01  1.22311197E-01 -3.46214504E-01
 -6.68367172E-03  3.75713404E-01  1.71439168E-01 -4.85276313E-01 -9.36826024E-03
  1.53888529E-01  4.15967711E-01  1.16626006E-01 -1.83235956E-01 -3.53737051E-03
  1.00128934E-02  1.05425730E-02  1.19248386E-01  1.80245548E-02  1.47825061E-01
  1.80244188E-02  1.47824615E-01  1.00000000E+00  9.18314205E-02  4.74638745E-01
  8.84874294E-02 -2.50472829E-01 -4.83537849E-03  7.03028343E-01  1.94225091E-01
 -5.49774225E-01 -1.06133926E-02  3.59041865E-01  4.21943197E-01  3.50098529E-01
 -4.39782571E-02 -8.49000345E-04  2.40318336E-03  1.19248386E-01  3.49844827E-01
  1.47825061E-01  3.99348667E-01  1.47824615E-01  3.99347926E-01  6.58292049E-01
  1.00000000E+00
Core Hamiltonian Matrix                    R   N=         276
 -1.98228455E+01 -4.07175722E+00 -6.66221919E+00 -5.03632118E-03 -3.36972748E-02
 -5.91562158E+00  1.17634733E-06  8.48665859E-06 -1.57877861E-05 -5.94530359E+00
  8.65233726E-07  5.68763453E-06 -3.46131343E-06  2.28244251E-06 -5.94530340E+00
 -3.50891479E+00 -5.33471087E+00 -2.69565933E-02  8.01914520E-06  4.45472470E-06
 -5.40437122E+00 -8.46062807E-04 -1.82338505E-02 -3.03144564E+00 -1.12724764E-05
 -2.59742289E-06 -1.21603899E-02 -3.73470450E+00  1.97621635E-07  5.72869447E-06
 -1.12724764E-05 -3.04910363E+00  1.51383197E-06  8.56061096E-06 -1.08318200E-05
 -3.73600691E+00  1.45351039E-07  2.98271714E-06 -2.59742289E-06  1.51383197E-06
 -3.04910190E+00  1.96823092E-06 -2.65591911E-06  1.29284209E-06 -3.73600009E+00
 -1.49690242E+00 -4.35852194E+00  1.38247131E-02 -2.63739492E-05 -8.50889454E-06
 -3.72261014E+00  3.20030790E-02 -2.75148786E-05 -9.53415169E-06 -4.67595121E+00
 -1.49783075E+00 -4.38505637E+00 -4.59816371E-02  5.09744183E-02  2.95486525E-03
 -3.74665656E+00 -4.04221935E-02  4.92171736E-02  2.85222151E-03 -2.27042133E+00
 -4.72876396E+00 -1.49783078E+00 -4.38505644E+00 -4.60108561E-02 -5.09279798E-02
 -2.93324303E-03 -3.74665568E+00 -4.04498945E-02 -4.91741059E-02 -2.83477426E-03
 -2.27043994E+00 -2.28735252E+00 -4.72874532E+00 -8.15761998E-07 -2.39687304E-05
 -4.56810200E-05 -7.96425316E-02 -5.80655350E-06 -2.33375908E-05 -4.76571677E-05
 -7.00132929E-02 -5.85092779E-06 -1.52582405E-05  2.84172649E-02 -2.84651179E-02
 -3.61126399E+00 -1.72478647E-07 -5.22076279E-06 -1.47378377E-05 -5.80655350E-06
 -7.96931404E-02 -5.24595495E-06 -1.65136351E-05 -5.85092779E-06 -7.00612725E-02
 -2.27447598E-06  1.64458542E-03 -1.65612301E-03 -5.75693303E-06 -3.61131981E+00
  1.23650049E-07  3.49645554E-06 -5.80655350E-06  5.11797675E-03 -8.82098486E-02
  3.25683464E-06 -5.85092779E-06  4.94019257E-03 -8.51720499E-02 -3.32376684E-06
  2.02037156E-07  1.22700663E-05  2.84850551E-03 -4.93030305E-02 -3.66205756E+00
 -3.06689109E-01 -1.16024360E+00  1.50357121E+00 -3.16402632E-04 -1.22673938E-04
 -1.55436200E+00  2.06969870E+00 -4.35632162E-04 -1.68964393E-04 -1.77143645E+00
 -5.12514849E-01 -5.12514395E-01  4.58722999E-04  1.77927363E-04  9.04752655E-08
 -3.64223360E+00 -1.44034597E+00 -2.61239789E+00  1.36590687E+00 -2.84787166E-04
 -1.10357905E-04 -3.08497342E+00  2.12969054E+00 -4.42912604E-04 -1.72881388E-04
 -2.18683987E+00 -1.75877326E+00 -1.75877091E+00  1.51239180E-04  5.97591089E-05
  1.32491279E-06 -2.70649346E+00 -3.62974782E+00 -6.18278082E-01 -1.73031757E+00
 -6.87835355E-01 -9.36365583E-01 -1.69678413E+00 -1.97905853E+00 -7.57933210E-01
 -1.03336554E+00 -1.87255722E+00 -9.82288820E-01 -1.13599581E+00 -1.89235142E+00
 -4.21209833E-01 -7.63270650E-01 -1.03951380E+00 -8.51234595E-02 -6.71776396E-01
 -4.02971181E+00 -1.75048990E+00 -3.06910505E+00 -4.89375242E-01 -6.52197616E-01
 -1.18184768E+00 -3.49477569E+00 -7.04503140E-01 -9.54126188E-01 -1.72897203E+00
 -2.11996597E+00 -2.16902965E+00 -2.36923924E+00 -1.12860012E-01 -2.04497593E-01
 -2.75159694E-01 -6.22879262E-01 -1.67681699E+00 -2.95183685E+00 -3.88609776E+00
 -6.18313419E-01 -1.73037422E+00 -6.87550152E-01 -1.00111817E+00  1.65958463E+00
 -1.97909851E+00 -7.57604509E-01 -1.10480568E+00  1.83147017E+00 -9.82164692E-01
 -1.18340383E+00 -1.84518414E+00 -4.50136469E-01  7.46202798E-01  1.08699884E+00
 -8.51317541E-02 -6.71806998E-01 -1.45393770E-01 -8.26059560E-01 -4.02974930E+00
 -1.75051756E+00 -3.06914502E+00 -4.89165328E-01 -6.97283717E-01  1.15591432E+00
 -3.49481099E+00 -7.04192151E-01 -1.02007948E+00  1.69102105E+00 -2.11995217E+00
 -2.18159655E+00 -2.35676913E+00 -1.20608162E-01  1.99917287E-01  2.87725808E-01
 -6.22903748E-01 -1.67685742E+00 -8.26054004E-01 -1.94067322E+00 -2.95186016E+00
 -3.88612052E+00 -6.18234907E-01 -1.73024986E+00 -6.86847752E-01  1.93792879E+00
  3.74118758E-02 -1.97901196E+00 -7.56860553E-01  2.13873085E+00  4.12881938E-02
 -9.81747984E-01 -2.22345974E+00 -8.05289905E-01  8.70525893E-01  1.68052681E-02
 -4.74374622E-02 -8.51424966E-02 -6.71833215E-01 -1.45371451E-01 -8.25998099E-01
 -1.45371702E-01 -8.25997727E-01 -4.02967213E+00 -1.75045609E+00 -3.06905786E+00
 -4.88698223E-01  1.34985320E+00  2.60603502E-02 -3.49473619E+00 -7.03516004E-01
  1.97476341E+00  3.81229456E-02 -2.11979970E+00 -2.45687217E+00 -2.08146602E+00
  2.33232707E-01  4.50048520E-03 -1.25565842E-02 -6.22938072E-01 -1.67689883E+00
 -8.26004221E-01 -1.94059890E+00 -8.26009404E-01 -1.94060345E+00 -2.95181241E+00
 -3.88607602E+00
Number of independent functions            I               23
Alpha MO coefficients                      R   N=         529
 -9.92871988E-01 -4.91951231E-02 -8.37525810E-05 -1.08679409E-07 -1.53744635E-09
  1.39543807E-02  2.57280394E-04 -5.46663054E-08 -2.88227821E-08  9.34161481E-03
  9.17175980E-03  9.17159872E-03 -1.31605092E-07 -1.45485438E-08  2.34841807E-08
  2.63487207E-05 -1.97748822E-03  1.90213477E-04 -2.59641987E-03  1.90236123E-04
 -2.59647322E-03  1.90013032E-04 -2.59625778E-03  1.97875453E-01 -3.80087459E-01
 -3.06693058E-02  3.55344904E-06  5.35428741E-06 -3.74468517E-01 -6.13631681E-03
 -1.97414346E-06  1.29977698E-06  2.33861001E-03 -2.32537703E-03 -2.32631454E-03
 -3.59495278E-06 -3.66172840E-07  2.83658151E-07 -1.02001701E-01 -3.44152729E-02
 -1.40703709E-01 -4.08662059E-02 -1.40707302E-01 -4.08666192E-02 -1.40697880E-01
 -4.08660673E-02 -1.83813169E-06  4.72348581E-06 -1.01018111E-04 -2.62113015E-01
  3.63819842E-01  5.25853328E-06 -4.98041021E-05 -1.22811169E-01  1.70465591E-01
  5.08132516E-07  9.72637839E-03 -9.72654633E-03 -1.00653008E-02  1.39808426E-02
  1.76504177E-02  4.81468772E-05  4.03388520E-05  1.18722622E-01  1.00632293E-01
 -2.76579361E-01 -2.34426893E-01  1.57823639E-01  1.33776727E-01  2.16840887E-06
 -5.65676273E-06  2.37764888E-04  3.63814801E-01  2.62115057E-01 -6.18348074E-06
  1.14378647E-04  1.70462366E-01  1.22815479E-01  2.13111763E-06 -1.52911681E-02
  1.52887399E-02  1.39738338E-02  1.00748685E-02  1.12236372E-02 -8.69087394E-05
 -7.65615840E-05  2.50824701E-01  2.12601669E-01 -2.25521782E-02 -1.91146565E-02
 -2.28204168E-01 -1.93437259E-01  6.97932796E-03 -9.50609397E-03  4.24163614E-01
 -2.48927090E-04 -5.78199014E-05 -3.88910038E-02  2.30346827E-01 -1.33399745E-04
 -2.84131937E-05 -2.20115993E-02  1.07891475E-02  1.07761747E-02  4.22679386E-06
  1.89778121E-06 -3.56045821E-07 -2.93409382E-01 -2.82788761E-01  8.67353786E-02
  7.41896234E-02  8.67528896E-02  7.42071205E-02  8.68749156E-02  7.43205784E-02
  1.51805104E-01 -1.99213469E-01  1.83649821E-01 -4.20587380E-05 -2.40542249E-05
 -2.11178889E+00  3.97182032E-01 -8.91041445E-05 -5.73035036E-05  2.28123959E-02
  6.78374872E-03  6.78407822E-03 -3.21214371E-06 -1.56070184E-06  5.34853871E-07
  1.09798914E-01  1.28388313E+00  1.01954967E-02  6.78924893E-01  1.01880342E-02
  6.78883394E-01  1.01832897E-02  6.78885324E-01  6.45153737E-02 -6.75412145E-02
 -3.72758596E-01  1.89392887E-04  2.65087036E-05 -1.27435934E+00 -1.09874426E+00
  6.00466258E-04  8.55969254E-05 -1.47774094E-02  1.46406470E-02  1.46328414E-02
  3.03239061E-06  3.57384079E-06 -2.51126546E-07 -1.37970757E-01 -1.01562309E+00
  3.97483868E-02  9.52760792E-01  3.97499990E-02  9.52728034E-01  3.98091599E-02
  9.53353993E-01  1.42610327E-05 -1.17733313E-05 -2.05162262E-04 -3.70417093E-01
 -1.16846844E-01 -3.31232140E-04 -6.77091721E-04 -1.28988810E+00 -4.06869060E-01
  1.88913901E-06 -1.34071793E-02  1.34109461E-02  7.45638973E-03  2.35642073E-03
  3.91475136E-03 -2.26952394E-05 -3.04180325E-04  8.59656604E-02  1.27665525E+00
  2.79071118E-02  4.14610920E-01 -1.13850512E-01 -1.69052163E+00 -8.13068097E-06
  7.86980825E-06  2.71427501E-05  1.16848686E-01 -3.70423460E-01  1.87698468E-04
  8.27865262E-05  4.06892038E-01 -1.28987414E+00  9.74618906E-07  3.39055117E-03
 -3.39364454E-03 -2.35098659E-03  7.46707765E-03  1.54804547E-02  8.62944312E-06
  7.07996777E-05  8.18546121E-02  1.21528975E+00 -1.15372299E-01 -1.71323608E+00
  3.35113369E-02  4.97618939E-01 -1.41296278E-06 -1.02178409E-05  3.26714022E-05
 -1.20269277E-01  7.55730736E-01  4.69611734E-05 -6.22046942E-05  2.30393331E-01
 -1.44759544E+00  5.11703577E-06  7.18561094E-03 -7.19185394E-03 -9.02226309E-03
  5.67802177E-02  8.26573101E-02 -2.34192792E-06 -7.79610974E-06  3.64468133E-01
  1.79460664E-01 -4.28294034E-01 -2.10927189E-01  6.38130405E-02  3.14386243E-02
  1.08606545E-06  2.46147827E-05  4.16790632E-05  7.55751736E-01  1.20275174E-01
 -6.19421350E-05 -2.17174951E-04 -1.44763786E+00 -2.30359671E-01  4.84116782E-05
 -7.16275459E-02  7.15932213E-02  5.67348340E-02  9.04252047E-03  8.28579269E-03
  9.46939812E-05 -5.81325290E-05  2.84093405E-01  1.39941971E-01  1.73561357E-01
  8.55372415E-02 -4.57713350E-01 -2.25408499E-01  1.33081056E-02  5.18729526E-02
  8.65886549E-01 -9.45742894E-05 -4.64633704E-05 -3.45185479E-01 -1.46193965E+00
  3.78716165E-05  6.21039028E-05 -1.12652023E-01  5.31977502E-02  5.32298670E-02
  5.54946528E-05  1.98325106E-05  2.00018017E-06 -4.25339094E-01 -1.75893807E-01
  1.79164645E-01  1.54022596E-01  1.79141141E-01  1.53985103E-01  1.79026346E-01
  1.53821446E-01 -3.39805831E-02  3.99237182E-01 -5.92253722E-01  2.15439491E-04
  6.66424383E-05 -6.52654348E-01  9.28670163E-01 -3.39599179E-04 -1.05936610E-04
 -1.56107276E-01  8.72545888E-02  8.72443029E-02  5.22611242E-05  2.20957804E-05
 -1.52313225E-06 -1.09684002E+00  1.72510729E+00  6.95426950E-03 -1.88532920E-01
  6.97472262E-03 -1.88586674E-01  7.04531261E-03 -1.88766901E-01 -2.69491169E-05
  2.15838758E-04 -1.71365453E-04 -7.91339803E-01 -3.02867611E-01 -3.13180544E-04
  2.75950632E-04  1.13559172E+00  4.34629534E-01  7.34951693E-05 -1.39006831E-01
  1.38941464E-01  1.05845463E-01  4.05523205E-02  5.09651807E-02 -1.33318423E-04
  7.54280641E-05  6.42677570E-01 -1.22948542E+00  1.48214657E-01 -2.83672769E-01
 -7.91483292E-01  1.51371425E+00  2.03052851E-05 -1.63443671E-04 -7.40055613E-05
  3.02872227E-01 -7.91355720E-01  2.37419389E-04  8.56936710E-05 -4.34631310E-01
  1.13563554E+00 -2.67005817E-05  4.41836799E-02 -4.41650093E-02 -4.04974002E-02
  1.05924808E-01  1.60419710E-01  4.76733079E-05  2.08535135E-05  5.42690922E-01
 -1.03792863E+00 -8.27844206E-01  1.58365964E+00  2.85644437E-01 -5.46223015E-01
  9.11802946E-02 -5.87291600E-01 -4.04399562E-01 -2.07276438E-04  1.39820604E-04
  7.72838399E-01  4.86624401E-01  3.28837892E-04 -1.84294774E-04 -1.16686460E-01
  4.38600128E-02  4.39404416E-02  1.00997972E-04  8.49168592E-06 -2.79433638E-05
  1.85161111E-01  2.19978704E-01  7.23414759E-01 -6.73345988E-01  7.23592118E-01
 -6.73685017E-01  7.23076807E-01 -6.72674070E-01 -8.81438514E-02 -2.06095051E+00
  1.07814262E-02  1.04300704E-05  2.97520877E-06  5.16260832E+00  1.71121549E-01
 -8.83428943E-05 -3.58500203E-05 -1.34581980E-01 -1.11089906E-01 -1.11030381E-01
 -1.36570351E-05 -7.73425591E-06  1.90297628E-06 -3.60514177E-01 -6.31265577E-01
 -2.23277852E-01 -1.08528485E+00 -2.23259306E-01 -1.08534546E+00 -2.23311595E-01
 -1.08527113E+00 -8.94817505E-06 -9.45638004E-05  4.43822934E-06 -6.12102704E-03
 -8.05838428E-04  2.75813238E-04 -5.91694145E-06 -3.23912684E-03 -4.24120285E-04
  3.58052724E-04  5.03271947E-01 -5.03641138E-01  8.05586354E-01  1.05922348E-01
 -4.26267148E-02 -5.48404843E-05 -3.19181255E-05  5.74534044E-03 -2.00743918E-03
  3.86682716E-03 -1.36913125E-03 -9.73398281E-03  3.23629696E-03  1.60966514E-06
  1.35801942E-05 -1.99990550E-06 -8.04810356E-04  6.11597480E-03 -4.32243395E-05
 -1.87976598E-06 -4.26871665E-04  3.22782765E-03 -8.00576557E-05  3.67857854E-02
 -3.67038039E-02  1.06047534E-01 -8.05295467E-01  5.81736209E-01  5.34724291E-06
  5.34423061E-06 -7.82543680E-03  2.66244626E-03  8.92809093E-03 -3.01585078E-03
 -1.07859677E-03  3.74484826E-04 -1.85770621E-02  2.35837993E-02  3.56139306E-02
 -1.10297107E-05 -2.38553036E-06  2.57463078E-01  4.10547382E-01 -6.78392535E-05
 -1.12705427E-05 -1.08783065E+00  5.24917730E-01  5.24903345E-01  4.54451206E-04
  1.93407057E-04  3.51619665E-05  6.00107894E-01 -1.01985018E-01 -2.99543022E-01
 -1.58983706E-02 -2.99497314E-01 -1.58928926E-02 -2.99534864E-01 -1.58401630E-02
  2.17525467E-06 -2.89737160E-05 -4.26633122E-05 -1.46257785E-01 -1.86935305E-02
  5.47450844E-06 -1.58890551E-04 -4.28312562E-01 -5.47425709E-02 -2.85062407E-04
  7.93821855E-01 -7.93528276E-01 -6.52705552E-01 -8.35632325E-02 -6.35271469E-02
 -8.61506175E-07 -3.47370052E-05  4.58533025E-01 -5.11223780E-02  3.13706991E-01
 -3.49618432E-02 -7.72193146E-01  8.61030390E-02  2.03685718E-06 -9.62865817E-06
  2.05809515E-06 -1.87019642E-02  1.46277304E-01 -2.16824029E-05  1.02895380E-05
 -5.47579977E-02  4.28296222E-01  1.13958004E-04  5.50999327E-02 -5.52102112E-02
 -8.33684809E-02  6.53175154E-01  9.16145259E-01 -2.44531371E-05  9.18596076E-06
 -6.26940076E-01  6.99181389E-02  7.10605746E-01 -7.92359019E-02 -8.36011857E-02
  9.31900657E-03 -4.86179133E-01  2.94287053E+00 -2.16119991E-02  4.48931378E-06
  4.31914978E-06  2.34268311E+00  4.32968383E-02 -2.47618929E-05 -7.91053568E-06
 -1.84054981E+00 -1.88692262E+00 -1.88693660E+00 -1.65092163E-05 -2.76392973E-06
  2.55234362E-06  4.85173875E-02 -3.62343367E-01  1.36086587E-01 -5.01304875E-01
  1.36095596E-01 -5.01319566E-01  1.36070227E-01 -5.01300070E-01
Alpha Orbital Energies                     R   N=          23
 -1.01819644E+01 -6.81803421E-01 -3.91303769E-01 -3.91300301E-01 -3.67083706E-01
  1.00390347E-01  1.47836775E-01  1.76215525E-01  1.76226018E-01  5.31196563E-01
  5.31204106E-01  5.70701379E-01  8.13185550E-01  8.95352635E-01  8.95368003E-01
  9.24215403E-01  1.08893865E+00  1.66176708E+00  1.66177269E+00  2.10602256E+00
  2.24374261E+00  2.24378139E+00  4.15618269E+00
Total SCF Density                          R   N=         276
  2.04999638E+00 -5.28637288E-02  2.93954004E-01 -6.05033902E-03  1.52579955E-02
  3.61710902E-01  6.88797518E-07 -4.55010345E-06  1.45715208E-05  4.02129007E-01
  1.11417662E-06 -2.49921053E-06  1.76010733E-06 -1.12819630E-06  4.02138368E-01
 -1.76448948E-01  2.84028002E-01 -1.00252599E-02  9.44176245E-06  1.07203167E-06
  2.83867810E-01  2.75986860E-04  2.59961302E-04  1.95785900E-01 -5.38890089E-06
 -2.98168379E-06 -1.33139453E-02  1.06194794E-01 -1.34404650E-06  9.53570055E-07
 -7.17330024E-06  1.88414341E-01 -7.59195530E-07  8.45336872E-06 -1.02047068E-05
  8.82800382E-02  8.09645262E-08 -2.24117448E-07 -2.21214274E-07  1.69193261E-06
  1.88421105E-01  1.50972340E-06 -1.99057945E-06  6.84753014E-07  8.82843209E-02
 -1.79318006E-02 -2.27838780E-03 -1.88180500E-02  1.22574445E-05  4.05736489E-06
  2.21347624E-04 -1.01644978E-02  6.46417064E-06  1.95308720E-06  1.15449075E-03
 -1.89825369E-02  6.60421165E-04  9.28459021E-03 -1.62305172E-02 -9.40064478E-04
  1.15862327E-03  4.99928295E-03 -7.60502353E-03 -4.40578259E-04 -3.14546281E-04
  1.06871304E-03 -1.89825650E-02  6.60866592E-04  9.29211438E-03  1.62180650E-02
  9.36125690E-04  1.15974720E-03  5.00225091E-03  7.59849971E-03  4.38685945E-04
 -3.13872000E-04 -2.45183530E-04  1.06801435E-03 -1.00476677E-06  2.41220106E-06
  1.24847652E-05  1.54442657E-02  1.59168026E-06  2.08128052E-06  6.19051188E-06
  7.23628715E-03  8.31033989E-07 -1.56019425E-07 -6.23044821E-04  6.23191262E-04
  5.93156687E-04 -9.72374662E-08  2.61800212E-07  3.59866580E-06  1.64999756E-06
  1.54545652E-02  1.48663079E-07  1.79087521E-06  7.64097453E-07  7.24120471E-03
 -2.83811824E-08 -3.61046982E-05  3.61358012E-05  1.26323130E-07  5.93933881E-04
  4.44417635E-08 -1.71407126E-07  1.45170349E-06 -1.08615755E-03  1.87269130E-02
 -1.37264392E-07  6.41865259E-07 -5.08921257E-04  8.77445054E-03  8.32150523E-08
  9.56650705E-08 -1.73232748E-07 -4.16390492E-05  7.19688760E-04  8.75014552E-04
 -4.45151885E-02  8.31148979E-02 -2.42650580E-01  5.68729480E-05  2.23109104E-05
  9.92155592E-02 -1.33920022E-01  3.72289154E-05  1.14755297E-05  1.24402271E-02
 -5.85281161E-03 -5.85219617E-03 -5.14510846E-06 -1.44387430E-06 -1.00170954E-07
  1.92986846E-01 -1.36404416E-02  3.17326271E-02 -2.37786134E-01  6.36882597E-05
  2.15493658E-05  4.77155622E-02 -1.29857661E-01  3.95741343E-05  1.09273907E-05
  1.22513519E-02 -5.97519033E-03 -5.97403992E-03 -5.09437961E-06 -1.46283448E-06
 -1.12849421E-07  1.72966497E-01  1.62315625E-01 -5.48499747E-02  1.05289969E-01
  8.23058098E-02  1.20225807E-01  2.17865617E-01  9.86352217E-02  4.17308937E-02
  5.63288305E-02  1.02081261E-01 -4.47172748E-03 -2.83185393E-03  7.88754756E-03
  4.62175241E-03  8.37416863E-03  9.82119706E-03 -2.22260679E-02 -3.94004486E-02
  2.08657375E-01 -9.98087337E-03  2.99089654E-02  6.55249558E-02  1.01903975E-01
  1.84667231E-01  2.47615634E-02  3.47174991E-02  4.77439959E-02  8.65259164E-02
 -3.50470585E-03 -2.80096343E-03  6.28468329E-03  3.91685388E-03  7.09802785E-03
  8.32465588E-03 -3.52264185E-02 -3.91613068E-02  1.54914956E-01  1.25014433E-01
 -5.48509296E-02  1.05291724E-01  8.22707518E-02  1.28536277E-01 -2.13084189E-01
  9.86357748E-02  4.17158434E-02  6.02228836E-02 -9.98393372E-02 -4.47408168E-03
 -2.16066863E-03  7.21861217E-03  4.93917314E-03 -8.18761318E-03 -1.02698590E-02
 -2.22261581E-02 -3.94001369E-02 -2.23405005E-02 -4.08832045E-02  2.08658777E-01
 -9.98045992E-03  2.99084084E-02  6.54973305E-02  1.08947055E-01 -1.80607808E-01
  2.47598523E-02  3.47059328E-02  5.10441855E-02 -8.46229123E-02 -3.50680720E-03
 -2.23198320E-03  5.71769744E-03  4.18586615E-03 -6.93981465E-03 -8.70461324E-03
 -3.52285896E-02 -3.91627248E-02 -4.08804597E-02 -4.09450404E-02  1.54912275E-01
  1.25009715E-01 -5.48475434E-02  1.05288694E-01  8.21881331E-02 -2.48827618E-01
 -4.80430753E-03  9.86263327E-02  4.16816298E-02 -1.16588079E-01 -2.25231126E-03
 -4.47984882E-03  1.25815708E-02 -7.51760721E-03 -9.55311310E-03 -1.84806307E-04
  4.48603024E-04 -2.22221111E-02 -3.94032630E-02 -2.23402556E-02 -4.08798401E-02
 -2.23407096E-02 -4.08799406E-02  2.08657248E-01 -9.98119523E-03  2.99112612E-02
  6.54362600E-02 -2.10917209E-01 -4.07341317E-03  2.47566483E-02  3.46816418E-02
 -9.88257650E-02 -1.90985100E-03 -3.51216418E-03  1.02642343E-02 -6.77290090E-03
 -8.09820344E-03 -1.56775086E-04  3.80214748E-04 -3.52295254E-02 -3.91705343E-02
 -4.08815641E-02 -4.09444552E-02 -4.08805298E-02 -4.09429208E-02  1.54924377E-01
  1.25029020E-01
Pure Switching                             I                1
Dipole_Data                                R   N=           3
  1.29518881E-01 -1.13823374E-05 -2.16737492E-05
Quadrupole_Data                            R   N=           6
 -8.30476698E+00  1.59207285E-04 -8.36760399E+00  2.49639896E-05 -1.94384209E-05
 -8.36764208E+00
Octapole_Data                              R   N=          10
 -5.54331386E-01  4.39704647E-04  6.10692877E-01 -5.60056336E-01  1.47778545E-04
  4.40484831E-05 -3.24690707E-02  6.11029578E-01  5.59597719E-01  3.22065923E-02
Hexadecapole_Data                          R   N=          15
 -1.69586294E+01 -6.53499806E-06 -5.74516173E+00 -3.26474425E-01 -1.51935794E+01
 -7.08837350E-05  4.19878080E-05 -1.88886083E-02  2.58147127E-07 -5.74469316E+00
  3.27132003E-01 -5.06470041E+00  1.90579353E-02 -1.19739991E-04 -1.51934076E+01
