
    -----------------------------------------------------------------------
          Psi4: An Open-Source Ab Initio Electronic Structure Package
                               Psi4 1.3.2 release

                         Git: Rev {HEAD} ecbda83 


    R. M. Parrish, L. A. Burns, D. G. A. Smith, A. C. Simmonett,
    A. E. DePrince III, E. G. Hohenstein, U. Bozkaya, A. Yu. Sokolov,
    R. Di Remigio, R. M. Richard, J. F. Gonthier, A. M. James,
    H. R. McAlexander, A. Kumar, M. Saitow, X. Wang, B. P. Pritchard,
    P. Verma, H. F. Schaefer III, K. Patkowski, R. A. King, E. F. Valeev,
    F. A. Evangelista, J. M. Turney, T. D. Crawford, and C. D. Sherrill,
    J. Chem. Theory Comput. 13(7) pp 3185--3197 (2017).
    (doi: 10.1021/acs.jctc.7b00174)


                         Additional Contributions by
    P. Kraus, H. Kruse, M. H. Lechner, M. C. Schieber, R. A. Shaw,
    A. Alenaizan, R. Galvelis, Z. L. Glick, S. Lehtola, and J. P. Misiewicz

    -----------------------------------------------------------------------


    Psi4 started on: Saturday, 16 January 2021 07:25PM

    Process ID: 2137978
    Host:       osmium
    PSIDATADIR: /home/eric/.pyenv/versions/miniconda3-4.7.12/envs/cclib_berquist_37/share/psi4
    Memory:     500.0 MiB
    Threads:    6
    
  ==> Input File <==

--------------------------------------------------------------------------
molecule {
2 1
Ca       -0.0189445819    0.0168856118    0.0029552556
--
-4 1
O         0.0059357732    0.0539462402    2.0666953554
C         1.1192677168    0.0565124029    2.6707956290
O         1.2573714505    0.0395244414    3.9053082702
C         2.3884653211    0.1278723578    1.8240492753
H         3.1314435353   -0.5492127077    2.2533000325
H         2.7767185111    1.1399567901    1.9619064517
N         2.1959491132   -0.1350066786    0.3964608780
C         2.7399855870    0.9263867367   -0.4406785973
H         2.8099384384    0.5688976476   -1.4702186279
H         3.7421857655    1.2387509233   -0.1326537005
C         2.5897052603   -1.4944006285    0.0129942865
H         2.6749552922   -1.5336926682   -1.0739775698
H         3.5697888367   -1.7626000133    0.4232645051
C         1.5535070376   -2.5061048344    0.4841153080
H         1.4573549177   -2.4562572045    1.5697776586
H         1.8934956444   -3.5174141170    0.2341259076
N         0.2426874615   -2.2169078213   -0.1065384835
C        -0.8986497874   -2.7109933035    0.6529204644
H        -0.6719353043   -2.6464020709    1.7193064090
H        -1.1376935237   -3.7548077148    0.4292616747
C         0.1689683890   -2.5815163035   -1.5231226018
H        -0.8081969643   -3.0209737048   -1.7379240610
H         0.9132956900   -3.3412529777   -1.7746027711
C         0.3135749725   -1.4133154654   -2.4968563041
O         0.5092072377   -1.6863795543   -3.6927709236
O         0.1881693623   -0.2414664394   -2.0325203989
C         1.8191836002    2.1528535142   -0.4809782972
O         2.3167054138    3.2405970779   -0.8091789340
O         0.5895630873    1.9703752935   -0.2125263301
C        -2.1472787881   -1.8468625277    0.4343522829
O        -3.2537365269   -2.3577093572    0.6653267987
O        -1.9679111967   -0.6429723725    0.0657648319

units angstrom
no_reorient
symmetry c1
}

set {
    basis def2-tzvp
}

energy("sapt0-ct")
--------------------------------------------------------------------------

  //>>>>>>>>>>>>>>>>>>>>>>>>>>>>>>>>>>>//
  //              Dimer HF             //
  //<<<<<<<<<<<<<<<<<<<<<<<<<<<<<<<<<<<//


*** tstart() called on osmium
*** at Sat Jan 16 19:25:04 2021

   => Loading Basis Set <=

    Name: DEF2-TZVP
    Role: ORBITAL
    Keyword: BASIS
    atoms 1                                      entry CA         line   664 file /home/eric/.pyenv/versions/miniconda3-4.7.12/envs/cclib_berquist_37/share/psi4/basis/def2-tzvp.gbs 
    atoms 2, 4, 26-27, 29-30, 32-33              entry O          line   189 file /home/eric/.pyenv/versions/miniconda3-4.7.12/envs/cclib_berquist_37/share/psi4/basis/def2-tzvp.gbs 
    atoms 3, 5, 9, 12, 15, 19, 22, 25, 28, 31    entry C          line   123 file /home/eric/.pyenv/versions/miniconda3-4.7.12/envs/cclib_berquist_37/share/psi4/basis/def2-tzvp.gbs 
    atoms 6-7, 10-11, 13-14, 16-17, 20-21, 23-24 entry H          line    15 file /home/eric/.pyenv/versions/miniconda3-4.7.12/envs/cclib_berquist_37/share/psi4/basis/def2-tzvp.gbs 
    atoms 8, 18                                  entry N          line   156 file /home/eric/.pyenv/versions/miniconda3-4.7.12/envs/cclib_berquist_37/share/psi4/basis/def2-tzvp.gbs 


         ---------------------------------------------------------
                                   SCF
               by Justin Turney, Rob Parrish, Andy Simmonett
                          and Daniel G. A. Smith
                              RHF Reference
                        6 Threads,    500 MiB Core
         ---------------------------------------------------------

  ==> Geometry <==

    Molecular point group: c1
    Full point group: C1

    Geometry (in Angstrom), charge = -2, multiplicity = 1:

       Center              X                  Y                   Z               Mass       
    ------------   -----------------  -----------------  -----------------  -----------------
         CA          -0.518878688889     0.497066808261    -0.056635761411    39.962590863000
         O           -0.493998333789     0.534127436661     2.007104338389    15.994914619570
         C            0.619333609811     0.536693599361     2.611204611989    12.000000000000
         O            0.757437343511     0.519705637861     3.845717253189    15.994914619570
         C            1.888531214111     0.608053554261     1.764458258289    12.000000000000
         H            2.631509428311    -0.069031511239     2.193709015489     1.007825032230
         H            2.276784404111     1.620137986561     1.902315434689     1.007825032230
         N            1.696015006211     0.345174517861     0.336869860989    14.003074004430
         C            2.240051480011     1.406567933161    -0.500269614311    12.000000000000
         H            2.310004331411     1.049078844061    -1.529809644911     1.007825032230
         H            3.242251658511     1.718932119761    -0.192244717511     1.007825032230
         C            2.089771153311    -1.014219432039    -0.046596730511    12.000000000000
         H            2.175021185211    -1.053511471739    -1.133568586811     1.007825032230
         H            3.069854729711    -1.282418816839     0.363673488089     1.007825032230
         C            1.053572930611    -2.025923637939     0.424524290989    12.000000000000
         H            0.957420810711    -1.976076008039     1.510186641589     1.007825032230
         H            1.393561537411    -3.037232920539     0.174534890589     1.007825032230
         N           -0.257246645489    -1.736726624839    -0.166129500511    14.003074004430
         C           -1.398583894389    -2.230812107039     0.593329447389    12.000000000000
         H           -1.171869411289    -2.166220874439     1.659715391989     1.007825032230
         H           -1.637627630689    -3.274626518339     0.369670657689     1.007825032230
         C           -0.330965717989    -2.101335107039    -1.582713618811    12.000000000000
         H           -1.308131071289    -2.540792508339    -1.797515078011     1.007825032230
         H            0.413361583011    -2.861071781239    -1.834193788111     1.007825032230
         C           -0.186359134489    -0.933134268939    -2.556447321111    12.000000000000
         O            0.009273130711    -1.206198357839    -3.752361940611    15.994914619570
         O           -0.311764744689     0.238714757061    -2.092111415911    15.994914619570
         C            1.319249493211     2.633034710661    -0.540569314211    12.000000000000
         O            1.816771306811     3.720778274361    -0.868769951011    15.994914619570
         O            0.089628980311     2.450556489961    -0.272117347111    15.994914619570
         C           -2.647212895089    -1.366681331239     0.374761265889    12.000000000000
         O           -3.753670633889    -1.877528160739     0.605735781689    15.994914619570
         O           -2.467845303689    -0.162791176039     0.006173814889    15.994914619570

  Running in c1 symmetry.

  Rotational constants: A =      0.01297  B =      0.01023  C =      0.00808 [cm^-1]
  Rotational constants: A =    388.75640  B =    306.70596  C =    242.18842 [MHz]
  Nuclear repulsion = 2275.421055613053795

  Charge       = -2
  Multiplicity = 1
  Electrons    = 172
  Nalpha       = 86
  Nbeta        = 86

  ==> Algorithm <==

  SCF Algorithm Type is DF.
  DIIS enabled.
  MOM disabled.
  Fractional occupation disabled.
  Guess Type is SAD.
  Energy threshold   = 1.00e-08
  Density threshold  = 1.00e-08
  Integral threshold = 0.00e+00

  ==> Primary Basis <==

  Basis Set: DEF2-TZVP
    Blend: DEF2-TZVP
    Number of shells: 282
    Number of basis function: 728
    Number of Cartesian functions: 831
    Spherical Harmonics?: true
    Max angular momentum: 3

   => Loading Basis Set <=

    Name: (DEF2-TZVP AUX)
    Role: JKFIT
    Keyword: DF_BASIS_SCF
    atoms 1                                      entry CA         line  1255 file /home/eric/.pyenv/versions/miniconda3-4.7.12/envs/cclib_berquist_37/share/psi4/basis/def2-tzvp-jkfit.gbs 
    atoms 2, 4, 26-27, 29-30, 32-33              entry O          line   323 file /home/eric/.pyenv/versions/miniconda3-4.7.12/envs/cclib_berquist_37/share/psi4/basis/def2-tzvp-jkfit.gbs 
    atoms 3, 5, 9, 12, 15, 19, 22, 25, 28, 31    entry C          line   203 file /home/eric/.pyenv/versions/miniconda3-4.7.12/envs/cclib_berquist_37/share/psi4/basis/def2-tzvp-jkfit.gbs 
    atoms 6-7, 10-11, 13-14, 16-17, 20-21, 23-24 entry H          line    23 file /home/eric/.pyenv/versions/miniconda3-4.7.12/envs/cclib_berquist_37/share/psi4/basis/def2-tzvp-jkfit.gbs 
    atoms 8, 18                                  entry N          line   263 file /home/eric/.pyenv/versions/miniconda3-4.7.12/envs/cclib_berquist_37/share/psi4/basis/def2-tzvp-jkfit.gbs 

  ==> Pre-Iterations <==

   -------------------------------------------------------
    Irrep   Nso     Nmo     Nalpha   Nbeta   Ndocc  Nsocc
   -------------------------------------------------------
     A        728     728       0       0       0       0
   -------------------------------------------------------
    Total     728     728      86      86      86       0
   -------------------------------------------------------

  ==> Integral Setup <==

  ==> DiskDFJK: Density-Fitted J/K Matrices <==

    J tasked:                  Yes
    K tasked:                  Yes
    wK tasked:                  No
    OpenMP threads:              6
    Integrals threads:           6
    Memory [MiB]:              375
    Algorithm:                Disk
    Integral Cache:           SAVE
    Schwarz Cutoff:          1E-12
    Fitting Condition:       1E-10

   => Auxiliary Basis Set <=

  Basis Set: (DEF2-TZVP AUX)
    Blend: DEF2-TZVP-JKFIT
    Number of shells: 616
    Number of basis function: 1896
    Number of Cartesian functions: 2263
    Spherical Harmonics?: true
    Max angular momentum: 4

  Minimum eigenvalue in the overlap matrix is 7.7782979608E-05.
  Using Symmetric Orthogonalization.

  SCF Guess: Superposition of Atomic Densities via on-the-fly atomic UHF.

  ==> Iterations <==

                           Total Energy        Delta E     RMS |[F,P]|

   @DF-RHF iter SAD: -1769.84732511248717   -1.76985e+03   0.00000e+00 
   @DF-RHF iter   1: -1769.97925215463329   -1.31927e-01   1.92951e-03 DIIS
   @DF-RHF iter   2: -1770.53489097808392   -5.55639e-01   1.29371e-03 DIIS
   @DF-RHF iter   3: -1770.83602032270642   -3.01129e-01   1.64463e-04 DIIS
   @DF-RHF iter   4: -1770.84434411560278   -8.32379e-03   7.71572e-05 DIIS
   @DF-RHF iter   5: -1770.84586686150556   -1.52275e-03   1.90849e-05 DIIS
   @DF-RHF iter   6: -1770.84597582940023   -1.08968e-04   6.54366e-06 DIIS
   @DF-RHF iter   7: -1770.84599270860053   -1.68792e-05   1.60737e-06 DIIS
   @DF-RHF iter   8: -1770.84599399552008   -1.28692e-06   6.56373e-07 DIIS
   @DF-RHF iter   9: -1770.84599418888092   -1.93361e-07   2.54462e-07 DIIS
   @DF-RHF iter  10: -1770.84599423629220   -4.74113e-08   9.97898e-08 DIIS
   @DF-RHF iter  11: -1770.84599424459202   -8.29982e-09   3.40767e-08 DIIS
   @DF-RHF iter  12: -1770.84599424536827   -7.76254e-10   1.31873e-08 DIIS
   @DF-RHF iter  13: -1770.84599424545104   -8.27640e-11   4.20205e-09 DIIS
  Energy and wave function converged.


  ==> Post-Iterations <==

    Orbital Energies [Eh]
    ---------------------

    Doubly Occupied:                                                      

       1A   -148.867712     2A    -20.260771     3A    -20.260396  
       4A    -20.258522     5A    -20.258462     6A    -20.253793  
       7A    -20.253474     8A    -20.250212     9A    -20.250054  
      10A    -16.332367    11A    -15.362560    12A    -15.362481  
      13A    -13.139807    14A    -13.139796    15A    -13.139723  
      16A    -11.107931    17A    -11.107702    18A    -11.102041  
      19A    -11.101858    20A    -11.079018    21A    -11.078379  
      22A    -11.054191    23A    -11.054025    24A    -11.048449  
      25A    -11.048267    26A     -1.798819    27A     -1.159022  
      28A     -1.153828    29A     -1.150317    30A     -1.144021  
      31A     -1.069589    32A     -1.060389    33A     -1.056152  
      34A     -1.045524    35A     -1.040418    36A     -1.032187  
      37A     -0.906236    38A     -0.896598    39A     -0.896020  
      40A     -0.843416    41A     -0.786703    42A     -0.784219  
      43A     -0.734832    44A     -0.669161    45A     -0.614257  
      46A     -0.526669    47A     -0.515191    48A     -0.505786  
      49A     -0.504866    50A     -0.485615    51A     -0.474227  
      52A     -0.447420    53A     -0.441782    54A     -0.433540  
      55A     -0.412805    56A     -0.409554    57A     -0.402308  
      58A     -0.394669    59A     -0.380845    60A     -0.377136  
      61A     -0.376175    62A     -0.368193    63A     -0.362409  
      64A     -0.360724    65A     -0.348023    66A     -0.342867  
      67A     -0.339415    68A     -0.320041    69A     -0.300501  
      70A     -0.297456    71A     -0.291726    72A     -0.286683  
      73A     -0.223464    74A     -0.213743    75A     -0.201611  
      76A     -0.197247    77A     -0.183976    78A     -0.180907  
      79A     -0.180764    80A     -0.176740    81A     -0.174337  
      82A     -0.174170    83A     -0.165856    84A     -0.163955  
      85A     -0.159395    86A     -0.158612  

    Virtual:                                                              

      87A      0.262176    88A      0.295294    89A      0.299473  
      90A      0.304246    91A      0.341616    92A      0.344067  
      93A      0.368664    94A      0.372791    95A      0.383836  
      96A      0.387811    97A      0.396854    98A      0.398692  
      99A      0.415240   100A      0.420204   101A      0.435563  
     102A      0.440456   103A      0.449998   104A      0.454215  
     105A      0.459868   106A      0.467751   107A      0.475333  
     108A      0.476480   109A      0.493546   110A      0.501289  
     111A      0.505570   112A      0.515763   113A      0.518488  
     114A      0.522822   115A      0.531387   116A      0.542793  
     117A      0.554861   118A      0.567994   119A      0.571077  
     120A      0.572388   121A      0.581514   122A      0.586758  
     123A      0.587735   124A      0.590948   125A      0.608677  
     126A      0.610679   127A      0.617687   128A      0.632368  
     129A      0.639675   130A      0.640819   131A      0.649796  
     132A      0.670893   133A      0.673520   134A      0.678667  
     135A      0.680093   136A      0.683546   137A      0.688433  
     138A      0.701261   139A      0.703633   140A      0.711836  
     141A      0.714719   142A      0.722286   143A      0.726975  
     144A      0.733579   145A      0.739001   146A      0.742970  
     147A      0.745165   148A      0.749727   149A      0.757563  
     150A      0.761632   151A      0.767946   152A      0.769906  
     153A      0.781068   154A      0.784921   155A      0.785744  
     156A      0.793082   157A      0.794203   158A      0.801530  
     159A      0.802980   160A      0.812749   161A      0.821355  
     162A      0.822630   163A      0.829724   164A      0.833300  
     165A      0.838400   166A      0.845606   167A      0.848562  
     168A      0.862443   169A      0.869403   170A      0.875512  
     171A      0.877508   172A      0.881609   173A      0.885740  
     174A      0.891801   175A      0.903539   176A      0.905147  
     177A      0.911865   178A      0.920309   179A      0.934655  
     180A      0.936942   181A      0.952437   182A      0.961144  
     183A      0.963113   184A      0.967885   185A      0.982098  
     186A      0.988783   187A      0.989972   188A      1.001839  
     189A      1.006499   190A      1.010418   191A      1.019026  
     192A      1.030557   193A      1.033867   194A      1.036627  
     195A      1.050646   196A      1.054029   197A      1.060071  
     198A      1.060961   199A      1.066633   200A      1.079901  
     201A      1.092265   202A      1.098249   203A      1.100496  
     204A      1.114273   205A      1.128517   206A      1.131152  
     207A      1.131999   208A      1.139184   209A      1.165168  
     210A      1.174513   211A      1.188388   212A      1.196028  
     213A      1.204592   214A      1.215490   215A      1.222932  
     216A      1.231947   217A      1.233955   218A      1.247955  
     219A      1.249992   220A      1.252555   221A      1.259044  
     222A      1.276105   223A      1.293723   224A      1.295661  
     225A      1.306551   226A      1.315550   227A      1.324006  
     228A      1.326617   229A      1.341259   230A      1.346991  
     231A      1.355258   232A      1.360004   233A      1.374464  
     234A      1.377422   235A      1.384262   236A      1.389559  
     237A      1.391047   238A      1.402108   239A      1.417975  
     240A      1.428708   241A      1.430032   242A      1.449547  
     243A      1.451103   244A      1.454269   245A      1.475425  
     246A      1.490685   247A      1.505479   248A      1.507517  
     249A      1.520253   250A      1.537955   251A      1.540887  
     252A      1.550034   253A      1.552491   254A      1.557049  
     255A      1.574844   256A      1.594786   257A      1.598091  
     258A      1.614826   259A      1.615622   260A      1.622182  
     261A      1.637765   262A      1.644358   263A      1.655313  
     264A      1.659971   265A      1.678949   266A      1.690230  
     267A      1.713962   268A      1.715758   269A      1.723540  
     270A      1.730513   271A      1.736309   272A      1.751039  
     273A      1.760508   274A      1.783041   275A      1.822232  
     276A      1.833408   277A      1.850112   278A      1.854799  
     279A      1.867819   280A      1.887006   281A      1.889673  
     282A      1.891910   283A      1.908853   284A      1.920353  
     285A      1.943497   286A      1.965840   287A      1.969593  
     288A      1.971187   289A      1.978713   290A      1.988730  
     291A      1.992774   292A      2.010710   293A      2.013895  
     294A      2.018244   295A      2.021146   296A      2.030383  
     297A      2.038902   298A      2.044689   299A      2.059063  
     300A      2.065513   301A      2.066277   302A      2.083613  
     303A      2.099940   304A      2.105041   305A      2.111560  
     306A      2.125104   307A      2.125564   308A      2.131508  
     309A      2.138812   310A      2.139997   311A      2.148007  
     312A      2.160178   313A      2.170567   314A      2.182825  
     315A      2.192289   316A      2.193874   317A      2.197993  
     318A      2.208243   319A      2.213938   320A      2.232967  
     321A      2.244842   322A      2.264959   323A      2.274646  
     324A      2.300647   325A      2.312960   326A      2.318415  
     327A      2.318784   328A      2.342575   329A      2.344985  
     330A      2.366110   331A      2.368954   332A      2.385153  
     333A      2.390909   334A      2.392270   335A      2.412262  
     336A      2.427138   337A      2.429379   338A      2.434717  
     339A      2.446044   340A      2.447694   341A      2.457922  
     342A      2.475674   343A      2.479149   344A      2.497851  
     345A      2.519055   346A      2.527449   347A      2.538733  
     348A      2.543574   349A      2.549592   350A      2.563509  
     351A      2.568223   352A      2.572403   353A      2.587396  
     354A      2.589412   355A      2.608946   356A      2.612348  
     357A      2.613370   358A      2.621414   359A      2.638535  
     360A      2.648016   361A      2.651439   362A      2.664397  
     363A      2.669857   364A      2.680781   365A      2.690197  
     366A      2.703632   367A      2.715157   368A      2.725683  
     369A      2.742928   370A      2.756340   371A      2.773696  
     372A      2.781541   373A      2.783401   374A      2.801061  
     375A      2.807003   376A      2.830910   377A      2.838027  
     378A      2.840046   379A      2.844386   380A      2.853198  
     381A      2.858391   382A      2.868731   383A      2.872339  
     384A      2.895479   385A      2.900916   386A      2.915520  
     387A      2.917010   388A      2.951289   389A      2.957073  
     390A      2.961754   391A      2.978272   392A      2.980920  
     393A      2.982031   394A      2.987971   395A      3.016826  
     396A      3.026050   397A      3.041908   398A      3.055752  
     399A      3.058940   400A      3.059217   401A      3.086754  
     402A      3.088074   403A      3.112302   404A      3.121816  
     405A      3.125121   406A      3.137404   407A      3.142809  
     408A      3.159932   409A      3.165010   410A      3.181334  
     411A      3.187514   412A      3.203938   413A      3.206265  
     414A      3.219540   415A      3.227436   416A      3.236605  
     417A      3.252239   418A      3.258889   419A      3.262764  
     420A      3.270121   421A      3.277304   422A      3.278143  
     423A      3.294130   424A      3.306440   425A      3.326642  
     426A      3.338457   427A      3.345384   428A      3.347457  
     429A      3.359016   430A      3.390279   431A      3.402237  
     432A      3.410483   433A      3.416825   434A      3.469661  
     435A      3.474632   436A      3.480114   437A      3.488288  
     438A      3.498673   439A      3.505824   440A      3.512890  
     441A      3.517774   442A      3.521951   443A      3.538020  
     444A      3.542198   445A      3.576577   446A      3.584299  
     447A      3.586908   448A      3.589868   449A      3.605438  
     450A      3.612678   451A      3.617766   452A      3.622272  
     453A      3.628616   454A      3.635822   455A      3.648460  
     456A      3.650997   457A      3.671882   458A      3.680907  
     459A      3.686037   460A      3.692050   461A      3.692863  
     462A      3.700419   463A      3.711644   464A      3.716027  
     465A      3.729439   466A      3.730148   467A      3.749843  
     468A      3.753266   469A      3.756340   470A      3.764580  
     471A      3.779429   472A      3.786119   473A      3.790623  
     474A      3.804394   475A      3.806784   476A      3.808473  
     477A      3.821569   478A      3.832544   479A      3.840058  
     480A      3.844291   481A      3.871119   482A      3.879991  
     483A      3.881572   484A      3.894406   485A      3.898278  
     486A      3.907963   487A      3.919531   488A      3.921546  
     489A      3.933023   490A      3.949479   491A      3.951725  
     492A      3.953141   493A      3.967042   494A      3.974356  
     495A      3.995291   496A      3.996503   497A      4.007713  
     498A      4.018290   499A      4.024793   500A      4.030115  
     501A      4.046870   502A      4.049642   503A      4.054838  
     504A      4.068479   505A      4.072783   506A      4.082522  
     507A      4.093774   508A      4.103380   509A      4.108707  
     510A      4.113683   511A      4.117746   512A      4.123106  
     513A      4.130007   514A      4.139582   515A      4.146603  
     516A      4.162522   517A      4.167698   518A      4.189486  
     519A      4.190604   520A      4.199690   521A      4.205789  
     522A      4.216806   523A      4.220768   524A      4.246643  
     525A      4.266590   526A      4.268420   527A      4.283753  
     528A      4.293638   529A      4.316636   530A      4.329290  
     531A      4.331383   532A      4.334963   533A      4.347808  
     534A      4.359135   535A      4.387168   536A      4.428456  
     537A      4.429294   538A      4.436009   539A      4.459293  
     540A      4.491058   541A      4.497922   542A      4.502037  
     543A      4.508376   544A      4.521383   545A      4.523984  
     546A      4.535718   547A      4.566933   548A      4.576690  
     549A      4.587180   550A      4.599547   551A      4.604689  
     552A      4.630773   553A      4.652155   554A      4.678327  
     555A      4.690969   556A      4.710539   557A      4.717517  
     558A      4.731325   559A      4.767591   560A      4.790874  
     561A      4.802552   562A      4.869271   563A      4.883549  
     564A      4.906986   565A      4.968134   566A      5.013455  
     567A      5.015134   568A      5.023963   569A      5.038122  
     570A      5.047839   571A      5.091090   572A      5.094583  
     573A      5.113463   574A      5.117791   575A      5.136027  
     576A      5.146857   577A      5.183390   578A      5.233542  
     579A      5.255353   580A      5.279113   581A      5.283952  
     582A      5.297606   583A      5.299640   584A      5.353700  
     585A      5.369376   586A      5.402401   587A      5.412279  
     588A      5.450658   589A      5.529489   590A      5.565389  
     591A      5.708588   592A      5.731126   593A      5.765631  
     594A      5.770148   595A      5.852929   596A      5.859580  
     597A      5.873881   598A      5.885141   599A      5.887113  
     600A      5.889480   601A      5.900548   602A      5.906320  
     603A      5.910257   604A      5.911912   605A      5.914146  
     606A      5.916308   607A      5.921311   608A      5.931868  
     609A      5.937036   610A      5.941358   611A      5.954404  
     612A      5.963962   613A      5.968328   614A      5.988295  
     615A      6.021475   616A      6.022947   617A      6.043895  
     618A      6.058373   619A      6.058982   620A      6.065798  
     621A      6.081790   622A      6.087532   623A      6.097558  
     624A      6.120345   625A      6.143853   626A      6.192101  
     627A      6.263645   628A      6.272721   629A      6.275113  
     630A      6.278075   631A      6.287757   632A      6.291426  
     633A      6.299656   634A      6.307444   635A      6.342923  
     636A      6.357475   637A      6.377851   638A      6.378944  
     639A      6.386696   640A      6.402809   641A      6.434124  
     642A      6.441813   643A      6.565018   644A      6.568050  
     645A      6.589477   646A      6.595053   647A      6.607626  
     648A      6.637431   649A      6.793594   650A      6.797665  
     651A      6.807223   652A      6.813469   653A      6.866448  
     654A      6.869610   655A      6.883544   656A      6.893909  
     657A      6.911899   658A      6.914659   659A      6.920052  
     660A      6.926611   661A      7.143709   662A      7.149309  
     663A      7.152024   664A      7.153071   665A      7.154362  
     666A      7.161501   667A      7.166625   668A      7.169478  
     669A      7.260930   670A      7.268300   671A      7.272250  
     672A      7.273517   673A      7.275994   674A      7.301452  
     675A      7.324045   676A      7.344119   677A      7.413000  
     678A      7.449332   679A      7.463260   680A      7.502552  
     681A      7.551228   682A      7.560979   683A      7.578092  
     684A      7.585040   685A      7.586215   686A      7.591813  
     687A      7.606798   688A      7.613161   689A      7.654497  
     690A      7.659710   691A      7.664269   692A      7.676892  
     693A      7.784282   694A      7.786922   695A      7.793222  
     696A      7.793541   697A      7.937138   698A      7.942986  
     699A      7.945783   700A      7.948558   701A      7.948944  
     702A      7.952283   703A      7.971240   704A      7.988863  
     705A      8.003162   706A      8.008682   707A      8.042478  
     708A      8.059103   709A     23.870826   710A     23.898117  
     711A     23.928119   712A     23.935209   713A     23.966061  
     714A     23.980713   715A     24.848810   716A     24.861734  
     717A     24.877684   718A     24.906478   719A     34.442331  
     720A     34.492366   721A     45.759231   722A     45.781419  
     723A     45.791896   724A     45.799505   725A     45.858850  
     726A     45.888348   727A     45.955085   728A     46.046181  

    Final Occupation by Irrep:
              A 
    DOCC [    86 ]

  @DF-RHF Final Energy: -1770.84599424545104

   => Energetics <=

    Nuclear Repulsion Energy =           2275.4210556130537952
    One-Electron Energy =               -7009.9839084286504658
    Two-Electron Energy =                2963.7168585701456323
    Total Energy =                      -1770.8459942454510383

Computation Completed


Properties will be evaluated at   0.000000,   0.000000,   0.000000 [a0]

Properties computed using the SCF density matrix

  Nuclear Dipole Moment: [e a0]
     X:    13.4113      Y:   -12.9635      Z:     1.5760

  Electronic Dipole Moment: [e a0]
     X:    -9.9696      Y:     9.6219      Z:    -1.1626

  Dipole Moment: [e a0]
     X:     3.4417      Y:    -3.3416      Z:     0.4134     Total:     4.8148

  Dipole Moment: [D]
     X:     8.7479      Y:    -8.4934      Z:     1.0508     Total:    12.2380


*** tstop() called on osmium at Sat Jan 16 19:26:53 2021
Module time:
	user time   =     611.47 seconds =      10.19 minutes
	system time =      31.63 seconds =       0.53 minutes
	total time  =        109 seconds =       1.82 minutes
Total time:
	user time   =     611.47 seconds =      10.19 minutes
	system time =      31.63 seconds =       0.53 minutes
	total time  =        109 seconds =       1.82 minutes

  //>>>>>>>>>>>>>>>>>>>>>>>>>>>>>>>>>>>//
  //     Monomer A HF (Dimer Basis)    //
  //<<<<<<<<<<<<<<<<<<<<<<<<<<<<<<<<<<<//


*** tstart() called on osmium
*** at Sat Jan 16 19:26:53 2021

   => Loading Basis Set <=

    Name: DEF2-TZVP
    Role: ORBITAL
    Keyword: BASIS
    atoms 1                                      entry CA         line   664 file /home/eric/.pyenv/versions/miniconda3-4.7.12/envs/cclib_berquist_37/share/psi4/basis/def2-tzvp.gbs 
    atoms 2, 4, 26-27, 29-30, 32-33              entry O          line   189 file /home/eric/.pyenv/versions/miniconda3-4.7.12/envs/cclib_berquist_37/share/psi4/basis/def2-tzvp.gbs 
    atoms 3, 5, 9, 12, 15, 19, 22, 25, 28, 31    entry C          line   123 file /home/eric/.pyenv/versions/miniconda3-4.7.12/envs/cclib_berquist_37/share/psi4/basis/def2-tzvp.gbs 
    atoms 6-7, 10-11, 13-14, 16-17, 20-21, 23-24 entry H          line    15 file /home/eric/.pyenv/versions/miniconda3-4.7.12/envs/cclib_berquist_37/share/psi4/basis/def2-tzvp.gbs 
    atoms 8, 18                                  entry N          line   156 file /home/eric/.pyenv/versions/miniconda3-4.7.12/envs/cclib_berquist_37/share/psi4/basis/def2-tzvp.gbs 


         ---------------------------------------------------------
                                   SCF
               by Justin Turney, Rob Parrish, Andy Simmonett
                          and Daniel G. A. Smith
                              RHF Reference
                        6 Threads,    500 MiB Core
         ---------------------------------------------------------

  ==> Geometry <==

    Molecular point group: c1
    Full point group: C1

    Geometry (in Angstrom), charge = 2, multiplicity = 1:

       Center              X                  Y                   Z               Mass       
    ------------   -----------------  -----------------  -----------------  -----------------
         CA          -0.518878688889     0.497066808261    -0.056635761411    39.962590863000
      Gh(O)          -0.493998333789     0.534127436661     2.007104338389    15.994914619570
      Gh(C)           0.619333609811     0.536693599361     2.611204611989    12.000000000000
      Gh(O)           0.757437343511     0.519705637861     3.845717253189    15.994914619570
      Gh(C)           1.888531214111     0.608053554261     1.764458258289    12.000000000000
      Gh(H)           2.631509428311    -0.069031511239     2.193709015489     1.007825032230
      Gh(H)           2.276784404111     1.620137986561     1.902315434689     1.007825032230
      Gh(N)           1.696015006211     0.345174517861     0.336869860989    14.003074004430
      Gh(C)           2.240051480011     1.406567933161    -0.500269614311    12.000000000000
      Gh(H)           2.310004331411     1.049078844061    -1.529809644911     1.007825032230
      Gh(H)           3.242251658511     1.718932119761    -0.192244717511     1.007825032230
      Gh(C)           2.089771153311    -1.014219432039    -0.046596730511    12.000000000000
      Gh(H)           2.175021185211    -1.053511471739    -1.133568586811     1.007825032230
      Gh(H)           3.069854729711    -1.282418816839     0.363673488089     1.007825032230
      Gh(C)           1.053572930611    -2.025923637939     0.424524290989    12.000000000000
      Gh(H)           0.957420810711    -1.976076008039     1.510186641589     1.007825032230
      Gh(H)           1.393561537411    -3.037232920539     0.174534890589     1.007825032230
      Gh(N)          -0.257246645489    -1.736726624839    -0.166129500511    14.003074004430
      Gh(C)          -1.398583894389    -2.230812107039     0.593329447389    12.000000000000
      Gh(H)          -1.171869411289    -2.166220874439     1.659715391989     1.007825032230
      Gh(H)          -1.637627630689    -3.274626518339     0.369670657689     1.007825032230
      Gh(C)          -0.330965717989    -2.101335107039    -1.582713618811    12.000000000000
      Gh(H)          -1.308131071289    -2.540792508339    -1.797515078011     1.007825032230
      Gh(H)           0.413361583011    -2.861071781239    -1.834193788111     1.007825032230
      Gh(C)          -0.186359134489    -0.933134268939    -2.556447321111    12.000000000000
      Gh(O)           0.009273130711    -1.206198357839    -3.752361940611    15.994914619570
      Gh(O)          -0.311764744689     0.238714757061    -2.092111415911    15.994914619570
      Gh(C)           1.319249493211     2.633034710661    -0.540569314211    12.000000000000
      Gh(O)           1.816771306811     3.720778274361    -0.868769951011    15.994914619570
      Gh(O)           0.089628980311     2.450556489961    -0.272117347111    15.994914619570
      Gh(C)          -2.647212895089    -1.366681331239     0.374761265889    12.000000000000
      Gh(O)          -3.753670633889    -1.877528160739     0.605735781689    15.994914619570
      Gh(O)          -2.467845303689    -0.162791176039     0.006173814889    15.994914619570

  Running in c1 symmetry.

  Rotational constants: A =      0.01297  B =      0.01023  C =      0.00808 [cm^-1]
  Rotational constants: A =    388.75640  B =    306.70596  C =    242.18842 [MHz]
  Nuclear repulsion =    0.000000000000000

  Charge       = 2
  Multiplicity = 1
  Electrons    = 18
  Nalpha       = 9
  Nbeta        = 9

  ==> Algorithm <==

  SCF Algorithm Type is DF.
  DIIS enabled.
  MOM disabled.
  Fractional occupation disabled.
  Guess Type is SAD.
  Energy threshold   = 1.00e-08
  Density threshold  = 1.00e-08
  Integral threshold = 0.00e+00

  ==> Primary Basis <==

  Basis Set: DEF2-TZVP
    Blend: DEF2-TZVP
    Number of shells: 282
    Number of basis function: 728
    Number of Cartesian functions: 831
    Spherical Harmonics?: true
    Max angular momentum: 3

   => Loading Basis Set <=

    Name: (DEF2-TZVP AUX)
    Role: JKFIT
    Keyword: DF_BASIS_SCF
    atoms 1                                      entry CA         line  1255 file /home/eric/.pyenv/versions/miniconda3-4.7.12/envs/cclib_berquist_37/share/psi4/basis/def2-tzvp-jkfit.gbs 
    atoms 2, 4, 26-27, 29-30, 32-33              entry O          line   323 file /home/eric/.pyenv/versions/miniconda3-4.7.12/envs/cclib_berquist_37/share/psi4/basis/def2-tzvp-jkfit.gbs 
    atoms 3, 5, 9, 12, 15, 19, 22, 25, 28, 31    entry C          line   203 file /home/eric/.pyenv/versions/miniconda3-4.7.12/envs/cclib_berquist_37/share/psi4/basis/def2-tzvp-jkfit.gbs 
    atoms 6-7, 10-11, 13-14, 16-17, 20-21, 23-24 entry H          line    23 file /home/eric/.pyenv/versions/miniconda3-4.7.12/envs/cclib_berquist_37/share/psi4/basis/def2-tzvp-jkfit.gbs 
    atoms 8, 18                                  entry N          line   263 file /home/eric/.pyenv/versions/miniconda3-4.7.12/envs/cclib_berquist_37/share/psi4/basis/def2-tzvp-jkfit.gbs 

  ==> Pre-Iterations <==

   -------------------------------------------------------
    Irrep   Nso     Nmo     Nalpha   Nbeta   Ndocc  Nsocc
   -------------------------------------------------------
     A        728     728       0       0       0       0
   -------------------------------------------------------
    Total     728     728       9       9       9       0
   -------------------------------------------------------

  ==> Integral Setup <==

  ==> DiskDFJK: Density-Fitted J/K Matrices <==

    J tasked:                  Yes
    K tasked:                  Yes
    wK tasked:                  No
    OpenMP threads:              6
    Integrals threads:           6
    Memory [MiB]:              375
    Algorithm:                Disk
    Integral Cache:           LOAD
    Schwarz Cutoff:          1E-12
    Fitting Condition:       1E-10

   => Auxiliary Basis Set <=

  Basis Set: (DEF2-TZVP AUX)
    Blend: DEF2-TZVP-JKFIT
    Number of shells: 616
    Number of basis function: 1896
    Number of Cartesian functions: 2263
    Spherical Harmonics?: true
    Max angular momentum: 4

  Minimum eigenvalue in the overlap matrix is 7.7782979608E-05.
  Using Symmetric Orthogonalization.

  SCF Guess: Superposition of Atomic Densities via on-the-fly atomic UHF.

  ==> Iterations <==

                           Total Energy        Delta E     RMS |[F,P]|

   @DF-RHF iter SAD:  -676.37028228299130   -6.76370e+02   0.00000e+00 
   @DF-RHF iter   1:  -676.14089057394199    2.29392e-01   7.37550e-05 DIIS
   @DF-RHF iter   2:  -676.14232140690956   -1.43083e-03   1.41240e-05 DIIS
   @DF-RHF iter   3:  -676.14234854279721   -2.71359e-05   1.54213e-06 DIIS
   @DF-RHF iter   4:  -676.14234918804277   -6.45246e-07   1.17279e-07 DIIS
   @DF-RHF iter   5:  -676.14234919178500   -3.74223e-09   5.41446e-09 DIIS
  Energy and wave function converged.


  ==> Post-Iterations <==

    Orbital Energies [Eh]
    ---------------------

    Doubly Occupied:                                                      

       1A   -149.919493     2A    -17.370220     3A    -14.179506  
       4A    -14.179504     5A    -14.179479     6A     -2.778016  
       7A     -1.876834     8A     -1.876827     9A     -1.876817  

    Virtual:                                                              

      10A     -0.415024    11A     -0.325877    12A     -0.325598  
      13A     -0.325078    14A     -0.324627    15A     -0.324608  
      16A     -0.309153    17A     -0.309110    18A     -0.309090  
      19A     -0.188960    20A     -0.157046    21A     -0.156150  
      22A     -0.153200    23A     -0.152025    24A     -0.147077  
      25A     -0.147045    26A     -0.145357    27A     -0.144274  
      28A     -0.103161    29A     -0.098963    30A     -0.096618  
      31A     -0.089800    32A     -0.086039    33A     -0.077725  
      34A     -0.077091    35A     -0.029931    36A     -0.015648  
      37A     -0.014298    38A     -0.008155    39A     -0.003520  
      40A      0.001411    41A      0.007771    42A      0.010495  
      43A      0.012057    44A      0.015237    45A      0.018335  
      46A      0.022387    47A      0.023383    48A      0.028383  
      49A      0.040983    50A      0.048666    51A      0.049926  
      52A      0.055900    53A      0.070359    54A      0.073688  
      55A      0.085867    56A      0.095746    57A      0.097368  
      58A      0.111657    59A      0.119463    60A      0.123437  
      61A      0.123835    62A      0.138349    63A      0.142232  
      64A      0.145721    65A      0.163632    66A      0.165671  
      67A      0.171658    68A      0.179618    69A      0.181620  
      70A      0.187451    71A      0.194042    72A      0.200295  
      73A      0.215263    74A      0.218841    75A      0.218928  
      76A      0.230966    77A      0.233635    78A      0.247177  
      79A      0.248562    80A      0.260109    81A      0.261299  
      82A      0.267246    83A      0.268549    84A      0.272046  
      85A      0.277225    86A      0.279856    87A      0.288161  
      88A      0.289628    89A      0.310839    90A      0.319244  
      91A      0.319873    92A      0.329112    93A      0.335501  
      94A      0.341711    95A      0.354564    96A      0.357304  
      97A      0.362958    98A      0.364661    99A      0.373095  
     100A      0.382434   101A      0.398834   102A      0.400136  
     103A      0.412436   104A      0.416412   105A      0.417038  
     106A      0.422612   107A      0.431329   108A      0.442048  
     109A      0.448561   110A      0.454764   111A      0.458569  
     112A      0.482427   113A      0.483664   114A      0.488392  
     115A      0.498063   116A      0.500599   117A      0.510895  
     118A      0.517856   119A      0.528435   120A      0.540145  
     121A      0.549182   122A      0.560398   123A      0.561350  
     124A      0.578582   125A      0.590773   126A      0.602742  
     127A      0.606976   128A      0.623681   129A      0.632344  
     130A      0.643898   131A      0.654140   132A      0.667042  
     133A      0.684012   134A      0.687505   135A      0.695015  
     136A      0.710828   137A      0.727725   138A      0.735890  
     139A      0.740823   140A      0.756307   141A      0.758222  
     142A      0.772304   143A      0.789111   144A      0.792078  
     145A      0.802564   146A      0.803853   147A      0.813148  
     148A      0.818539   149A      0.825601   150A      0.833693  
     151A      0.845127   152A      0.853429   153A      0.858018  
     154A      0.861731   155A      0.871884   156A      0.873089  
     157A      0.891553   158A      0.901038   159A      0.929274  
     160A      0.934525   161A      0.942820   162A      0.952129  
     163A      0.958608   164A      0.970338   165A      0.985446  
     166A      0.992346   167A      0.995558   168A      0.995812  
     169A      1.005714   170A      1.009346   171A      1.020647  
     172A      1.032839   173A      1.034911   174A      1.045781  
     175A      1.050202   176A      1.052001   177A      1.074709  
     178A      1.080904   179A      1.082692   180A      1.100447  
     181A      1.103941   182A      1.106752   183A      1.117706  
     184A      1.122071   185A      1.134675   186A      1.144748  
     187A      1.146039   188A      1.152499   189A      1.156538  
     190A      1.157652   191A      1.180272   192A      1.181949  
     193A      1.196023   194A      1.209549   195A      1.214598  
     196A      1.220344   197A      1.231348   198A      1.254587  
     199A      1.258001   200A      1.269216   201A      1.275535  
     202A      1.283558   203A      1.296009   204A      1.297721  
     205A      1.302206   206A      1.311754   207A      1.334390  
     208A      1.345980   209A      1.359925   210A      1.371784  
     211A      1.374681   212A      1.380784   213A      1.391995  
     214A      1.396740   215A      1.408071   216A      1.426330  
     217A      1.430626   218A      1.436378   219A      1.436914  
     220A      1.465458   221A      1.466342   222A      1.476126  
     223A      1.486487   224A      1.502799   225A      1.516176  
     226A      1.521995   227A      1.533672   228A      1.535047  
     229A      1.550442   230A      1.566959   231A      1.575665  
     232A      1.594273   233A      1.602956   234A      1.610134  
     235A      1.618277   236A      1.624255   237A      1.630254  
     238A      1.651062   239A      1.660176   240A      1.676538  
     241A      1.678122   242A      1.706655   243A      1.726150  
     244A      1.732995   245A      1.754883   246A      1.757972  
     247A      1.764508   248A      1.781264   249A      1.785328  
     250A      1.793860   251A      1.804626   252A      1.818825  
     253A      1.832182   254A      1.845464   255A      1.846262  
     256A      1.855209   257A      1.872710   258A      1.881435  
     259A      1.892019   260A      1.893620   261A      1.906803  
     262A      1.929998   263A      1.930643   264A      1.941003  
     265A      1.947880   266A      1.954998   267A      1.974761  
     268A      1.983157   269A      1.986209   270A      1.993623  
     271A      2.003595   272A      2.028418   273A      2.045220  
     274A      2.047949   275A      2.055526   276A      2.058507  
     277A      2.073223   278A      2.077611   279A      2.081516  
     280A      2.094278   281A      2.104217   282A      2.114186  
     283A      2.126024   284A      2.129354   285A      2.149759  
     286A      2.154607   287A      2.161848   288A      2.177789  
     289A      2.193402   290A      2.197118   291A      2.211759  
     292A      2.231042   293A      2.258322   294A      2.266300  
     295A      2.275850   296A      2.290082   297A      2.302177  
     298A      2.304102   299A      2.340648   300A      2.343511  
     301A      2.347418   302A      2.351310   303A      2.369908  
     304A      2.381236   305A      2.404084   306A      2.417239  
     307A      2.418955   308A      2.424792   309A      2.447065  
     310A      2.451426   311A      2.483795   312A      2.494620  
     313A      2.520460   314A      2.522589   315A      2.547286  
     316A      2.560675   317A      2.575898   318A      2.581296  
     319A      2.589127   320A      2.597553   321A      2.601712  
     322A      2.612261   323A      2.621620   324A      2.635909  
     325A      2.649318   326A      2.653678   327A      2.677424  
     328A      2.681984   329A      2.701712   330A      2.709885  
     331A      2.723801   332A      2.731623   333A      2.764204  
     334A      2.786094   335A      2.788350   336A      2.794845  
     337A      2.815431   338A      2.823089   339A      2.842023  
     340A      2.855276   341A      2.872960   342A      2.884180  
     343A      2.892514   344A      2.921294   345A      2.932872  
     346A      2.940684   347A      2.949019   348A      2.961277  
     349A      2.963192   350A      2.998211   351A      3.005759  
     352A      3.018448   353A      3.049751   354A      3.063577  
     355A      3.095237   356A      3.100865   357A      3.123383  
     358A      3.144477   359A      3.156804   360A      3.176826  
     361A      3.177382   362A      3.184474   363A      3.184883  
     364A      3.225396   365A      3.249946   366A      3.258828  
     367A      3.261772   368A      3.271485   369A      3.309523  
     370A      3.321900   371A      3.329342   372A      3.342915  
     373A      3.370023   374A      3.402036   375A      3.416015  
     376A      3.456329   377A      3.457216   378A      3.459454  
     379A      3.480075   380A      3.487391   381A      3.488498  
     382A      3.503484   383A      3.506822   384A      3.538686  
     385A      3.579350   386A      3.591834   387A      3.598359  
     388A      3.632729   389A      3.641584   390A      3.684507  
     391A      3.700530   392A      3.705531   393A      3.711376  
     394A      3.753090   395A      3.760114   396A      3.770819  
     397A      3.776988   398A      3.818735   399A      3.823619  
     400A      3.846941   401A      3.861531   402A      3.873818  
     403A      3.875363   404A      3.893381   405A      3.904702  
     406A      3.912694   407A      3.921689   408A      3.927442  
     409A      3.946114   410A      3.953793   411A      3.956577  
     412A      3.969406   413A      3.986062   414A      3.990461  
     415A      4.003401   416A      4.035468   417A      4.036665  
     418A      4.041357   419A      4.042184   420A      4.065794  
     421A      4.073885   422A      4.083127   423A      4.101925  
     424A      4.119152   425A      4.127668   426A      4.130392  
     427A      4.133023   428A      4.145672   429A      4.151538  
     430A      4.171239   431A      4.179986   432A      4.187140  
     433A      4.188538   434A      4.222387   435A      4.232347  
     436A      4.251573   437A      4.266275   438A      4.269752  
     439A      4.273298   440A      4.288783   441A      4.297808  
     442A      4.306783   443A      4.312263   444A      4.333621  
     445A      4.345248   446A      4.346680   447A      4.351908  
     448A      4.373570   449A      4.375806   450A      4.379746  
     451A      4.380719   452A      4.389069   453A      4.390534  
     454A      4.410220   455A      4.414729   456A      4.444935  
     457A      4.455452   458A      4.470496   459A      4.472402  
     460A      4.485695   461A      4.496275   462A      4.517375  
     463A      4.519944   464A      4.536209   465A      4.573904  
     466A      4.586632   467A      4.601979   468A      4.620302  
     469A      4.626762   470A      4.632089   471A      4.656143  
     472A      4.695597   473A      4.705692   474A      4.730241  
     475A      4.753166   476A      4.757938   477A      4.774070  
     478A      4.776866   479A      4.791798   480A      4.804602  
     481A      4.823102   482A      4.842505   483A      4.853290  
     484A      4.867573   485A      4.909914   486A      4.915060  
     487A      4.948406   488A      4.972453   489A      4.974963  
     490A      5.031428   491A      5.043589   492A      5.075909  
     493A      5.095078   494A      5.111139   495A      5.139688  
     496A      5.154049   497A      5.165784   498A      5.192835  
     499A      5.221463   500A      5.251964   501A      5.253771  
     502A      5.282318   503A      5.290040   504A      5.313946  
     505A      5.324955   506A      5.345187   507A      5.346861  
     508A      5.381680   509A      5.382690   510A      5.395115  
     511A      5.413848   512A      5.454327   513A      5.517481  
     514A      5.540392   515A      5.571537   516A      5.587329  
     517A      5.653648   518A      5.660996   519A      5.678500  
     520A      5.681413   521A      5.691179   522A      5.694688  
     523A      5.709730   524A      5.741731   525A      5.766921  
     526A      5.791800   527A      5.792278   528A      5.803942  
     529A      5.851944   530A      5.857031   531A      5.936347  
     532A      5.949529   533A      5.961505   534A      5.967731  
     535A      5.979401   536A      5.985302   537A      5.989350  
     538A      6.006577   539A      6.008509   540A      6.020550  
     541A      6.023371   542A      6.033340   543A      6.043411  
     544A      6.054904   545A      6.087926   546A      6.112702  
     547A      6.173203   548A      6.173480   549A      6.182679  
     550A      6.183661   551A      6.200935   552A      6.202426  
     553A      6.213890   554A      6.215349   555A      6.233498  
     556A      6.244918   557A      6.246137   558A      6.256654  
     559A      6.275902   560A      6.302627   561A      6.318281  
     562A      6.358309   563A      6.360231   564A      6.380082  
     565A      6.399779   566A      6.422809   567A      6.439242  
     568A      6.444006   569A      6.453705   570A      6.489449  
     571A      6.500426   572A      6.507721   573A      6.549069  
     574A      6.555484   575A      6.619236   576A      6.623684  
     577A      6.627212   578A      6.630835   579A      6.717342  
     580A      6.731893   581A      6.741141   582A      6.744708  
     583A      6.835244   584A      6.841078   585A      7.015625  
     586A      7.029392   587A      7.038461   588A      7.046537  
     589A      7.059170   590A      7.060156   591A      7.122868  
     592A      7.138274   593A      7.151597   594A      7.157403  
     595A      7.183569   596A      7.198088   597A      7.214492  
     598A      7.220744   599A      7.393010   600A      7.414362  
     601A      7.432305   602A      7.434080   603A      7.456348  
     604A      7.465419   605A      7.485682   606A      7.485890  
     607A      7.508995   608A      7.527690   609A      7.593039  
     610A      7.602322   611A      7.743125   612A      7.750857  
     613A      7.875832   614A      7.885391   615A      7.900178  
     616A      7.901979   617A      8.101811   618A      8.105702  
     619A      8.124528   620A      8.135947   621A      8.580285  
     622A      8.582318   623A      8.627742   624A      8.643341  
     625A      8.675333   626A      8.745795   627A      8.771362  
     628A      8.784330   629A      8.815062   630A      8.817236  
     631A      8.836215   632A      8.864939   633A      8.882399  
     634A      8.898078   635A      8.925744   636A      8.941290  
     637A      8.968891   638A      8.973543   639A      8.985939  
     640A      8.999670   641A      9.031494   642A      9.078753  
     643A      9.085296   644A      9.087424   645A      9.099783  
     646A      9.142118   647A      9.151329   648A      9.164362  
     649A      9.186087   650A      9.189127   651A      9.195176  
     652A      9.197136   653A      9.238975   654A      9.256412  
     655A      9.259539   656A      9.291486   657A      9.309935  
     658A      9.343557   659A      9.355327   660A      9.360950  
     661A      9.410872   662A      9.411900   663A      9.432938  
     664A      9.435523   665A      9.437393   666A      9.441745  
     667A      9.467129   668A      9.472476   669A      9.637563  
     670A      9.638483   671A      9.645043   672A      9.647429  
     673A      9.663972   674A      9.679429   675A      9.694134  
     676A      9.707361   677A      9.969445   678A      9.971598  
     679A      9.991753   680A      9.994345   681A     10.144287  
     682A     10.162868   683A     10.218340   684A     10.224880  
     685A     10.233587   686A     10.242214   687A     10.305373  
     688A     10.305977   689A     10.316649   690A     10.319747  
     691A     10.659729   692A     10.671467   693A     10.717193  
     694A     10.719134   695A     11.833200   696A     11.836874  
     697A     11.862687   698A     11.864180   699A     14.402534  
     700A     14.435348   701A     18.854566   702A     18.860595  
     703A     18.912414   704A     18.962704   705A     19.055894  
     706A     19.077129   707A     19.084610   708A     19.098745  
     709A     65.852196   710A     65.890926   711A     65.917292  
     712A     65.925470   713A     65.947384   714A     65.987537  
     715A     66.862278   716A     66.877460   717A     66.902563  
     718A     66.931036   719A     94.182312   720A     94.230662  
     721A    126.311874   722A    126.317790   723A    126.410472  
     724A    126.458326   725A    126.468531   726A    126.496929  
     727A    126.506443   728A    126.546756  

    Final Occupation by Irrep:
              A 
    DOCC [     9 ]

  @DF-RHF Final Energy:  -676.14234919178500

   => Energetics <=

    Nuclear Repulsion Energy =              0.0000000000000000
    One-Electron Energy =                -915.8113105601914867
    Two-Electron Energy =                 239.6689613684064852
    Total Energy =                       -676.1423491917850015

Computation Completed


Properties will be evaluated at   0.000000,   0.000000,   0.000000 [a0]

Properties computed using the SCF density matrix

  Nuclear Dipole Moment: [e a0]
     X:   -19.6108      Y:    18.7864      Z:    -2.1405

  Electronic Dipole Moment: [e a0]
     X:    17.6496      Y:   -16.9077      Z:     1.9265

  Dipole Moment: [e a0]
     X:    -1.9612      Y:     1.8787      Z:    -0.2141     Total:     2.7243

  Dipole Moment: [D]
     X:    -4.9848      Y:     4.7753      Z:    -0.5441     Total:     6.9244


*** tstop() called on osmium at Sat Jan 16 19:27:19 2021
Module time:
	user time   =     131.65 seconds =       2.19 minutes
	system time =      11.80 seconds =       0.20 minutes
	total time  =         26 seconds =       0.43 minutes
Total time:
	user time   =     743.14 seconds =      12.39 minutes
	system time =      43.43 seconds =       0.72 minutes
	total time  =        135 seconds =       2.25 minutes

  //>>>>>>>>>>>>>>>>>>>>>>>>>>>>>>>>>>>//
  //     Monomer B HF (Dimer Basis)    //
  //<<<<<<<<<<<<<<<<<<<<<<<<<<<<<<<<<<<//


*** tstart() called on osmium
*** at Sat Jan 16 19:27:19 2021

   => Loading Basis Set <=

    Name: DEF2-TZVP
    Role: ORBITAL
    Keyword: BASIS
    atoms 1                                      entry CA         line   664 file /home/eric/.pyenv/versions/miniconda3-4.7.12/envs/cclib_berquist_37/share/psi4/basis/def2-tzvp.gbs 
    atoms 2, 4, 26-27, 29-30, 32-33              entry O          line   189 file /home/eric/.pyenv/versions/miniconda3-4.7.12/envs/cclib_berquist_37/share/psi4/basis/def2-tzvp.gbs 
    atoms 3, 5, 9, 12, 15, 19, 22, 25, 28, 31    entry C          line   123 file /home/eric/.pyenv/versions/miniconda3-4.7.12/envs/cclib_berquist_37/share/psi4/basis/def2-tzvp.gbs 
    atoms 6-7, 10-11, 13-14, 16-17, 20-21, 23-24 entry H          line    15 file /home/eric/.pyenv/versions/miniconda3-4.7.12/envs/cclib_berquist_37/share/psi4/basis/def2-tzvp.gbs 
    atoms 8, 18                                  entry N          line   156 file /home/eric/.pyenv/versions/miniconda3-4.7.12/envs/cclib_berquist_37/share/psi4/basis/def2-tzvp.gbs 


         ---------------------------------------------------------
                                   SCF
               by Justin Turney, Rob Parrish, Andy Simmonett
                          and Daniel G. A. Smith
                              RHF Reference
                        6 Threads,    500 MiB Core
         ---------------------------------------------------------

  ==> Geometry <==

    Molecular point group: c1
    Full point group: C1

    Geometry (in Angstrom), charge = -4, multiplicity = 1:

       Center              X                  Y                   Z               Mass       
    ------------   -----------------  -----------------  -----------------  -----------------
      Gh(CA)         -0.518878688889     0.497066808261    -0.056635761411    39.962590863000
         O           -0.493998333789     0.534127436661     2.007104338389    15.994914619570
         C            0.619333609811     0.536693599361     2.611204611989    12.000000000000
         O            0.757437343511     0.519705637861     3.845717253189    15.994914619570
         C            1.888531214111     0.608053554261     1.764458258289    12.000000000000
         H            2.631509428311    -0.069031511239     2.193709015489     1.007825032230
         H            2.276784404111     1.620137986561     1.902315434689     1.007825032230
         N            1.696015006211     0.345174517861     0.336869860989    14.003074004430
         C            2.240051480011     1.406567933161    -0.500269614311    12.000000000000
         H            2.310004331411     1.049078844061    -1.529809644911     1.007825032230
         H            3.242251658511     1.718932119761    -0.192244717511     1.007825032230
         C            2.089771153311    -1.014219432039    -0.046596730511    12.000000000000
         H            2.175021185211    -1.053511471739    -1.133568586811     1.007825032230
         H            3.069854729711    -1.282418816839     0.363673488089     1.007825032230
         C            1.053572930611    -2.025923637939     0.424524290989    12.000000000000
         H            0.957420810711    -1.976076008039     1.510186641589     1.007825032230
         H            1.393561537411    -3.037232920539     0.174534890589     1.007825032230
         N           -0.257246645489    -1.736726624839    -0.166129500511    14.003074004430
         C           -1.398583894389    -2.230812107039     0.593329447389    12.000000000000
         H           -1.171869411289    -2.166220874439     1.659715391989     1.007825032230
         H           -1.637627630689    -3.274626518339     0.369670657689     1.007825032230
         C           -0.330965717989    -2.101335107039    -1.582713618811    12.000000000000
         H           -1.308131071289    -2.540792508339    -1.797515078011     1.007825032230
         H            0.413361583011    -2.861071781239    -1.834193788111     1.007825032230
         C           -0.186359134489    -0.933134268939    -2.556447321111    12.000000000000
         O            0.009273130711    -1.206198357839    -3.752361940611    15.994914619570
         O           -0.311764744689     0.238714757061    -2.092111415911    15.994914619570
         C            1.319249493211     2.633034710661    -0.540569314211    12.000000000000
         O            1.816771306811     3.720778274361    -0.868769951011    15.994914619570
         O            0.089628980311     2.450556489961    -0.272117347111    15.994914619570
         C           -2.647212895089    -1.366681331239     0.374761265889    12.000000000000
         O           -3.753670633889    -1.877528160739     0.605735781689    15.994914619570
         O           -2.467845303689    -0.162791176039     0.006173814889    15.994914619570

  Running in c1 symmetry.

  Rotational constants: A =      0.01297  B =      0.01023  C =      0.00808 [cm^-1]
  Rotational constants: A =    388.75640  B =    306.70596  C =    242.18842 [MHz]
  Nuclear repulsion = 1711.884789460086722

  Charge       = -4
  Multiplicity = 1
  Electrons    = 154
  Nalpha       = 77
  Nbeta        = 77

  ==> Algorithm <==

  SCF Algorithm Type is DF.
  DIIS enabled.
  MOM disabled.
  Fractional occupation disabled.
  Guess Type is SAD.
  Energy threshold   = 1.00e-08
  Density threshold  = 1.00e-08
  Integral threshold = 0.00e+00

  ==> Primary Basis <==

  Basis Set: DEF2-TZVP
    Blend: DEF2-TZVP
    Number of shells: 282
    Number of basis function: 728
    Number of Cartesian functions: 831
    Spherical Harmonics?: true
    Max angular momentum: 3

   => Loading Basis Set <=

    Name: (DEF2-TZVP AUX)
    Role: JKFIT
    Keyword: DF_BASIS_SCF
    atoms 1                                      entry CA         line  1255 file /home/eric/.pyenv/versions/miniconda3-4.7.12/envs/cclib_berquist_37/share/psi4/basis/def2-tzvp-jkfit.gbs 
    atoms 2, 4, 26-27, 29-30, 32-33              entry O          line   323 file /home/eric/.pyenv/versions/miniconda3-4.7.12/envs/cclib_berquist_37/share/psi4/basis/def2-tzvp-jkfit.gbs 
    atoms 3, 5, 9, 12, 15, 19, 22, 25, 28, 31    entry C          line   203 file /home/eric/.pyenv/versions/miniconda3-4.7.12/envs/cclib_berquist_37/share/psi4/basis/def2-tzvp-jkfit.gbs 
    atoms 6-7, 10-11, 13-14, 16-17, 20-21, 23-24 entry H          line    23 file /home/eric/.pyenv/versions/miniconda3-4.7.12/envs/cclib_berquist_37/share/psi4/basis/def2-tzvp-jkfit.gbs 
    atoms 8, 18                                  entry N          line   263 file /home/eric/.pyenv/versions/miniconda3-4.7.12/envs/cclib_berquist_37/share/psi4/basis/def2-tzvp-jkfit.gbs 

  ==> Pre-Iterations <==

   -------------------------------------------------------
    Irrep   Nso     Nmo     Nalpha   Nbeta   Ndocc  Nsocc
   -------------------------------------------------------
     A        728     728       0       0       0       0
   -------------------------------------------------------
    Total     728     728      77      77      77       0
   -------------------------------------------------------

  ==> Integral Setup <==

  ==> DiskDFJK: Density-Fitted J/K Matrices <==

    J tasked:                  Yes
    K tasked:                  Yes
    wK tasked:                  No
    OpenMP threads:              6
    Integrals threads:           6
    Memory [MiB]:              375
    Algorithm:                Disk
    Integral Cache:           LOAD
    Schwarz Cutoff:          1E-12
    Fitting Condition:       1E-10

   => Auxiliary Basis Set <=

  Basis Set: (DEF2-TZVP AUX)
    Blend: DEF2-TZVP-JKFIT
    Number of shells: 616
    Number of basis function: 1896
    Number of Cartesian functions: 2263
    Spherical Harmonics?: true
    Max angular momentum: 4

  Minimum eigenvalue in the overlap matrix is 7.7782979608E-05.
  Using Symmetric Orthogonalization.

  SCF Guess: Superposition of Atomic Densities via on-the-fly atomic UHF.

  ==> Iterations <==

                           Total Energy        Delta E     RMS |[F,P]|

   @DF-RHF iter SAD: -1091.40643840585881   -1.09141e+03   0.00000e+00 
   @DF-RHF iter   1: -1092.30389734544633   -8.97459e-01   2.00172e-03 DIIS
   @DF-RHF iter   2: -1092.82040429588119   -5.16507e-01   1.55231e-03 DIIS
   @DF-RHF iter   3: -1093.28860872177665   -4.68204e-01   2.56916e-04 DIIS
   @DF-RHF iter   4: -1093.30333064424440   -1.47219e-02   1.17129e-04 DIIS
   @DF-RHF iter   5: -1093.30701049275240   -3.67985e-03   2.04685e-05 DIIS
   @DF-RHF iter   6: -1093.30719896848200   -1.88476e-04   7.98702e-06 DIIS
   @DF-RHF iter   7: -1093.30723416515411   -3.51967e-05   2.34260e-06 DIIS
   @DF-RHF iter   8: -1093.30723920025434   -5.03510e-06   9.82338e-07 DIIS
   @DF-RHF iter   9: -1093.30723999091765   -7.90663e-07   4.77034e-07 DIIS
   @DF-RHF iter  10: -1093.30724014801012   -1.57092e-07   1.56609e-07 DIIS
   @DF-RHF iter  11: -1093.30724016773752   -1.97274e-08   5.96353e-08 DIIS
   @DF-RHF iter  12: -1093.30724016964859   -1.91108e-09   2.03972e-08 DIIS
   @DF-RHF iter  13: -1093.30724016985232   -2.03727e-10   6.61391e-09 DIIS
  Energy and wave function converged.


  ==> Post-Iterations <==

    Orbital Energies [Eh]
    ---------------------

    Doubly Occupied:                                                      

       1A    -19.984638     2A    -19.984489     3A    -19.976776  
       4A    -19.976355     5A    -19.948798     6A    -19.948673  
       7A    -19.939284     8A    -19.939048     9A    -15.064407  
      10A    -15.064402    11A    -10.808467    12A    -10.808459  
      13A    -10.803490    14A    -10.802831    15A    -10.801695  
      16A    -10.801425    17A    -10.775776    18A    -10.775775  
      19A    -10.768067    20A    -10.767885    21A     -0.858496  
      22A     -0.857893    23A     -0.848770    24A     -0.848434  
      25A     -0.764141    26A     -0.741725    27A     -0.732509  
      28A     -0.731643    29A     -0.721817    30A     -0.716903  
      31A     -0.557950    32A     -0.498085    33A     -0.495801  
      34A     -0.448348    35A     -0.384202    36A     -0.332236  
      37A     -0.233287    38A     -0.224383    39A     -0.214269  
      40A     -0.211885    41A     -0.194231    42A     -0.177719  
      43A     -0.151831    44A     -0.144200    45A     -0.143481  
      46A     -0.126616    47A     -0.123928    48A     -0.110611  
      49A     -0.109023    50A     -0.089830    51A     -0.085668  
      52A     -0.079249    53A     -0.072534    54A     -0.070371  
      55A     -0.060606    56A     -0.052669    57A     -0.045285  
      58A     -0.040108    59A     -0.028425    60A     -0.010298  
      61A     -0.005817    62A     -0.004550    63A     -0.002363  
      64A      0.084811    65A      0.085681    66A      0.102916  
      67A      0.107286    68A      0.123856    69A      0.126887  
      70A      0.127001    71A      0.130616    72A      0.136475  
      73A      0.145730    74A      0.147757    75A      0.148764  
      76A      0.149982    77A      0.151568  

    Virtual:                                                              

      78A      0.468153    79A      0.503673    80A      0.516762  
      81A      0.519911    82A      0.567453    83A      0.569267  
      84A      0.602404    85A      0.604990    86A      0.617310  
      87A      0.618490    88A      0.642166    89A      0.644819  
      90A      0.660052    91A      0.668517    92A      0.689966  
      93A      0.690582    94A      0.702730    95A      0.709199  
      96A      0.728106    97A      0.731966    98A      0.737095  
      99A      0.743346   100A      0.751295   101A      0.763444  
     102A      0.766613   103A      0.778423   104A      0.779998  
     105A      0.788807   106A      0.795778   107A      0.797530  
     108A      0.809173   109A      0.831461   110A      0.835954  
     111A      0.840345   112A      0.853809   113A      0.857242  
     114A      0.860626   115A      0.867423   116A      0.875931  
     117A      0.882244   118A      0.896081   119A      0.904559  
     120A      0.907999   121A      0.918165   122A      0.933978  
     123A      0.935846   124A      0.941128   125A      0.949321  
     126A      0.955361   127A      0.963265   128A      0.966758  
     129A      0.969085   130A      0.983758   131A      0.989565  
     132A      0.990487   133A      0.994457   134A      1.001228  
     135A      1.004469   136A      1.016823   137A      1.025016  
     138A      1.028149   139A      1.036095   140A      1.040185  
     141A      1.043683   142A      1.047319   143A      1.050268  
     144A      1.052605   145A      1.065533   146A      1.072805  
     147A      1.077131   148A      1.078740   149A      1.091124  
     150A      1.096624   151A      1.106028   152A      1.108871  
     153A      1.115091   154A      1.116211   155A      1.122992  
     156A      1.127611   157A      1.136481   158A      1.149782  
     159A      1.151198   160A      1.157002   161A      1.172418  
     162A      1.175809   163A      1.187182   164A      1.193470  
     165A      1.194365   166A      1.205131   167A      1.209024  
     168A      1.218235   169A      1.230936   170A      1.239129  
     171A      1.254482   172A      1.262971   173A      1.266547  
     174A      1.273740   175A      1.278090   176A      1.285841  
     177A      1.286480   178A      1.293242   179A      1.296782  
     180A      1.306176   181A      1.313069   182A      1.323871  
     183A      1.324725   184A      1.332508   185A      1.340112  
     186A      1.352768   187A      1.358140   188A      1.362614  
     189A      1.375228   190A      1.393466   191A      1.400854  
     192A      1.403993   193A      1.414854   194A      1.422307  
     195A      1.431370   196A      1.445149   197A      1.466114  
     198A      1.470649   199A      1.483903   200A      1.488448  
     201A      1.502105   202A      1.512737   203A      1.518968  
     204A      1.529396   205A      1.534000   206A      1.535676  
     207A      1.552995   208A      1.553553   209A      1.561893  
     210A      1.568666   211A      1.574698   212A      1.576602  
     213A      1.587031   214A      1.595049   215A      1.616220  
     216A      1.621940   217A      1.623491   218A      1.635609  
     219A      1.641770   220A      1.645068   221A      1.653237  
     222A      1.659663   223A      1.671262   224A      1.671938  
     225A      1.674559   226A      1.697103   227A      1.715968  
     228A      1.719154   229A      1.729577   230A      1.735192  
     231A      1.754654   232A      1.760930   233A      1.764793  
     234A      1.789348   235A      1.790207   236A      1.818855  
     237A      1.820537   238A      1.823935   239A      1.835128  
     240A      1.841864   241A      1.842584   242A      1.846107  
     243A      1.848794   244A      1.869055   245A      1.878660  
     246A      1.881330   247A      1.902190   248A      1.904822  
     249A      1.911263   250A      1.940038   251A      1.945541  
     252A      1.952679   253A      1.958405   254A      1.965164  
     255A      1.990596   256A      2.004533   257A      2.016247  
     258A      2.020103   259A      2.039805   260A      2.040973  
     261A      2.066696   262A      2.069721   263A      2.090708  
     264A      2.118998   265A      2.130116   266A      2.131783  
     267A      2.142050   268A      2.153236   269A      2.155129  
     270A      2.166494   271A      2.181860   272A      2.194516  
     273A      2.201247   274A      2.214085   275A      2.220096  
     276A      2.235424   277A      2.247842   278A      2.252054  
     279A      2.267908   280A      2.275002   281A      2.276770  
     282A      2.298433   283A      2.299381   284A      2.306915  
     285A      2.312861   286A      2.315736   287A      2.336700  
     288A      2.339277   289A      2.361634   290A      2.370806  
     291A      2.371764   292A      2.378269   293A      2.392071  
     294A      2.392851   295A      2.404533   296A      2.417139  
     297A      2.418822   298A      2.433312   299A      2.434629  
     300A      2.437360   301A      2.456843   302A      2.460680  
     303A      2.466814   304A      2.473729   305A      2.478513  
     306A      2.485347   307A      2.505760   308A      2.508668  
     309A      2.515286   310A      2.527818   311A      2.552808  
     312A      2.558678   313A      2.585431   314A      2.588473  
     315A      2.603115   316A      2.610531   317A      2.638589  
     318A      2.642025   319A      2.658117   320A      2.671626  
     321A      2.683818   322A      2.689697   323A      2.701035  
     324A      2.710915   325A      2.712054   326A      2.724579  
     327A      2.728427   328A      2.759833   329A      2.771103  
     330A      2.777093   331A      2.789759   332A      2.799247  
     333A      2.803395   334A      2.813496   335A      2.820976  
     336A      2.845483   337A      2.856540   338A      2.858518  
     339A      2.870487   340A      2.880315   341A      2.891623  
     342A      2.895358   343A      2.898968   344A      2.902465  
     345A      2.905464   346A      2.930770   347A      2.936339  
     348A      2.940123   349A      2.958736   350A      2.970836  
     351A      2.971923   352A      2.982784   353A      2.989570  
     354A      2.998168   355A      3.003664   356A      3.022196  
     357A      3.025491   358A      3.040337   359A      3.063956  
     360A      3.077546   361A      3.095216   362A      3.096368  
     363A      3.111941   364A      3.112373   365A      3.121753  
     366A      3.124288   367A      3.126222   368A      3.138835  
     369A      3.149914   370A      3.155150   371A      3.179672  
     372A      3.197678   373A      3.198675   374A      3.208093  
     375A      3.242361   376A      3.245287   377A      3.248472  
     378A      3.250855   379A      3.267766   380A      3.271178  
     381A      3.282775   382A      3.295236   383A      3.298744  
     384A      3.310140   385A      3.332909   386A      3.337247  
     387A      3.341795   388A      3.362646   389A      3.366598  
     390A      3.376899   391A      3.380870   392A      3.406913  
     393A      3.412787   394A      3.427783   395A      3.443376  
     396A      3.454614   397A      3.458195   398A      3.476576  
     399A      3.480087   400A      3.499742   401A      3.504660  
     402A      3.514978   403A      3.533523   404A      3.537875  
     405A      3.542364   406A      3.546362   407A      3.550069  
     408A      3.567196   409A      3.577900   410A      3.591520  
     411A      3.600185   412A      3.602345   413A      3.620272  
     414A      3.632528   415A      3.644145   416A      3.657559  
     417A      3.676716   418A      3.686241   419A      3.703668  
     420A      3.752844   421A      3.753962   422A      3.765593  
     423A      3.781279   424A      3.793388   425A      3.800478  
     426A      3.805822   427A      3.811943   428A      3.817047  
     429A      3.828141   430A      3.829747   431A      3.847254  
     432A      3.859569   433A      3.864069   434A      3.873631  
     435A      3.879377   436A      3.897167   437A      3.903894  
     438A      3.904524   439A      3.919253   440A      3.919486  
     441A      3.932496   442A      3.933135   443A      3.942686  
     444A      3.961999   445A      3.962847   446A      3.964022  
     447A      3.981179   448A      3.986084   449A      3.989678  
     450A      4.004865   451A      4.007465   452A      4.015770  
     453A      4.019564   454A      4.040675   455A      4.042970  
     456A      4.044985   457A      4.053851   458A      4.060760  
     459A      4.070454   460A      4.077957   461A      4.080414  
     462A      4.087798   463A      4.100481   464A      4.112660  
     465A      4.126174   466A      4.131062   467A      4.142268  
     468A      4.145872   469A      4.167311   470A      4.170825  
     471A      4.177121   472A      4.182819   473A      4.192217  
     474A      4.204827   475A      4.224068   476A      4.228936  
     477A      4.235970   478A      4.241735   479A      4.248495  
     480A      4.252727   481A      4.278243   482A      4.281288  
     483A      4.283565   484A      4.300735   485A      4.303715  
     486A      4.311700   487A      4.318466   488A      4.326827  
     489A      4.337796   490A      4.356326   491A      4.360081  
     492A      4.362606   493A      4.383744   494A      4.388040  
     495A      4.392326   496A      4.403692   497A      4.405142  
     498A      4.410317   499A      4.424134   500A      4.430148  
     501A      4.435584   502A      4.448023   503A      4.454641  
     504A      4.476035   505A      4.480190   506A      4.481204  
     507A      4.492897   508A      4.502471   509A      4.503782  
     510A      4.533953   511A      4.548593   512A      4.558373  
     513A      4.558902   514A      4.584852   515A      4.594714  
     516A      4.602583   517A      4.618678   518A      4.629484  
     519A      4.633716   520A      4.634766   521A      4.647208  
     522A      4.697532   523A      4.711094   524A      4.717787  
     525A      4.724903   526A      4.749374   527A      4.773407  
     528A      4.782036   529A      4.794857   530A      4.799273  
     531A      4.802574   532A      4.805469   533A      4.823093  
     534A      4.839593   535A      4.848704   536A      4.865668  
     537A      4.876323   538A      4.885207   539A      4.899700  
     540A      4.905641   541A      4.921500   542A      4.947680  
     543A      4.964234   544A      5.005302   545A      5.009689  
     546A      5.040180   547A      5.060090   548A      5.081178  
     549A      5.101451   550A      5.106907   551A      5.150428  
     552A      5.180456   553A      5.188382   554A      5.206887  
     555A      5.254873   556A      5.299085   557A      5.301170  
     558A      5.309965   559A      5.330805   560A      5.337711  
     561A      5.380817   562A      5.382492   563A      5.401531  
     564A      5.403981   565A      5.424053   566A      5.435975  
     567A      5.474745   568A      5.533782   569A      5.554967  
[...]
     558A      6.056715   559A      6.135393   560A      6.152561  
     561A      6.159959   562A      6.161130   563A      6.170018  
     564A      6.176214   565A      6.186506   566A      6.189435  
     567A      6.190899   568A      6.201177   569A      6.202071  
     570A      6.220776   571A      6.222752   572A      6.223897  
     573A      6.231805   574A      6.234436   575A      6.251456  
     576A      6.251767   577A      6.277563   578A      6.282282  
     579A      6.314244   580A      6.316279   581A      6.342153  
     582A      6.342689   583A      6.355522   584A      6.364659  
     585A      6.372413   586A      6.380736   587A      6.381401  
     588A      6.391795   589A      6.449885   590A      6.492883  
     591A      6.562248   592A      6.566872   593A      6.571526  
     594A      6.571888   595A      6.585218   596A      6.585955  
     597A      6.587945   598A      6.594547   599A      6.628638  
     600A      6.654115   601A      6.659583   602A      6.660384  
     603A      6.663870   604A      6.668330   605A      6.729215  
     606A      6.734809   607A      6.840929   608A      6.849163  
     609A      6.877794   610A      6.896268   611A      6.897491  
     612A      6.899801   613A      7.096072   614A      7.096791  
     615A      7.103503   616A      7.113733   617A      7.145185  
     618A      7.147572   619A      7.157483   620A      7.159947  
     621A      7.201078   622A      7.202751   623A      7.207224  
     624A      7.211689   625A      7.423929   626A      7.426371  
     627A      7.428707   628A      7.430689   629A      7.441837  
     630A      7.443387   631A      7.447565   632A      7.450352  
     633A      7.522966   634A      7.526188   635A      7.527088  
     636A      7.530286   637A      7.569642   638A      7.572476  
     639A      7.573901   640A      7.586655   641A      7.602480  
     642A      7.616898   643A      7.640677   644A      7.652170  
     645A      7.843649   646A      7.850720   647A      7.856541  
     648A      7.859177   649A      7.863287   650A      7.864509  
     651A      7.871170   652A      7.873270   653A      7.961699  
     654A      7.964895   655A      7.968501   656A      7.981088  
     657A      8.038920   658A      8.059047   659A      8.061383  
     660A      8.062151   661A      8.198297   662A      8.211715  
     663A      8.222334   664A      8.224142   665A      8.231295  
     666A      8.233287   667A      8.248590   668A      8.252683  
     669A      8.298078   670A      8.313583   671A      8.323797  
     672A      8.324023   673A     24.111496   674A     24.146189  
     675A     24.166148   676A     24.189866   677A     24.205210  
     678A     24.226922   679A     25.123151   680A     25.135629  
     681A     25.148990   682A     25.158994   683A     34.660571  
     684A     34.673563   685A     46.003125   686A     46.006237  
     687A     46.022784   688A     46.036481   689A     46.042556  
     690A     46.075464   691A     46.128324   692A     46.156365  

    Final Occupation by Irrep:
              A 
    DOCC [    77 ]

  @DF-RHF Final Energy: -1093.30265989444729

   => Energetics <=

    Nuclear Repulsion Energy =           1711.8847894600867221
    One-Electron Energy =               -4992.0293568115785092
    Two-Electron Energy =                2186.8419074570442717
    Total Energy =                      -1093.3026598944475154

Computation Completed


Properties will be evaluated at   0.000000,   0.000000,   0.000000 [a0]

Properties computed using the SCF density matrix

  Nuclear Dipole Moment: [e a0]
     X:    33.0220      Y:   -31.7499      Z:     3.7165

  Electronic Dipole Moment: [e a0]
     X:   -29.4783      Y:    28.3150      Z:    -3.2928

  Dipole Moment: [e a0]
     X:     3.5437      Y:    -3.4349      Z:     0.4238     Total:     4.9534

  Dipole Moment: [D]
     X:     9.0072      Y:    -8.7307      Z:     1.0771     Total:    12.5902


*** tstop() called on osmium at Sat Jan 16 19:29:53 2021
Module time:
	user time   =     415.71 seconds =       6.93 minutes
	system time =      25.03 seconds =       0.42 minutes
	total time  =         75 seconds =       1.25 minutes
Total time:
	user time   =    1594.17 seconds =      26.57 minutes
	system time =      93.72 seconds =       1.56 minutes
	total time  =        289 seconds =       4.82 minutes

   => Loading Basis Set <=

    Name: (DEF2-TZVP AUX)
    Role: RIFIT
    Keyword: DF_BASIS_SAPT
    atoms 1                                      entry CA         line   966 file /home/eric/.pyenv/versions/miniconda3-4.7.12/envs/cclib_berquist_37/share/psi4/basis/def2-tzvp-ri.gbs 
    atoms 2, 4, 26-27, 29-30, 32-33              entry O          line   273 file /home/eric/.pyenv/versions/miniconda3-4.7.12/envs/cclib_berquist_37/share/psi4/basis/def2-tzvp-ri.gbs 
    atoms 3, 5, 9, 12, 15, 19, 22, 25, 28, 31    entry C          line   179 file /home/eric/.pyenv/versions/miniconda3-4.7.12/envs/cclib_berquist_37/share/psi4/basis/def2-tzvp-ri.gbs 
    atoms 6-7, 10-11, 13-14, 16-17, 20-21, 23-24 entry H          line    22 file /home/eric/.pyenv/versions/miniconda3-4.7.12/envs/cclib_berquist_37/share/psi4/basis/def2-tzvp-ri.gbs 
    atoms 8, 18                                  entry N          line   226 file /home/eric/.pyenv/versions/miniconda3-4.7.12/envs/cclib_berquist_37/share/psi4/basis/def2-tzvp-ri.gbs 


  //>>>>>>>>>>>>>>>>>>>>>>>>>>>>>>>>>>>//
  //        SAPT Charge Transfer       //
  //<<<<<<<<<<<<<<<<<<<<<<<<<<<<<<<<<<<//


  //>>>>>>>>>>>>>>>>>>>>>>>>>>>>>>>>>>>//
  //          Dimer Basis SAPT         //
  //<<<<<<<<<<<<<<<<<<<<<<<<<<<<<<<<<<<//


*** tstart() called on osmium
*** at Sat Jan 16 19:29:53 2021

        SAPT0  
    Ed Hohenstein
     6 June 2009

      Orbital Information
  --------------------------
    NSO        =       728
    NMO        =       728
    NRI        =      1805
    NOCC A     =         9
    NOCC B     =        77
    FOCC A     =         0
    FOCC B     =         0
    NVIR A     =       719
    NVIR B     =       651

    Elst10,r            =    -1.514635328904 [Eh]
    Exch10              =     0.419451633121 [Eh]
    Exch10 (S^2)        =     0.408660944001 [Eh]

    Iter     Energy [mEh]          dE [mEh]         Residual      Time [s]
       1      -8.98556015       8.985560146      15.302284358             2
       2      -9.77140957       0.785849422       2.405045434             3
       3      -9.87900499       0.107595426       0.211111293             5
       4      -9.87495358      -0.004051413       0.045287015             6
       5      -9.87421937      -0.000734206       0.009151953             8
       6      -9.87446762       0.000248247       0.001521245            10
       7      -9.87443795      -0.000029668       0.000111502            11
       8      -9.87443908       0.000001127       0.000006898            13
       9      -9.87443904      -0.000000041       0.000000461            14

    CHF Iterations converged


    Iter     Energy [mEh]          dE [mEh]         Residual      Time [s]
       1    -786.83458046     786.834580461     353.431308695             3
       2    -698.64999189     -88.184588570      77.297859769             6
       3    -731.14590231      32.495910415      30.356141808             8
       4    -745.83267506      14.686772757       8.326673251            11
       5    -746.01156722       0.178892160       4.745187415            13
       6    -744.31872909      -1.692838134       1.622881732            16
       7    -744.38366084       0.064931755       0.619237665            19
       8    -744.52869845       0.145037604       0.191405806            21
       9    -744.53609363       0.007395186       0.060755142            24
      10    -744.52562183      -0.010471803       0.020506924            26
      11    -744.52391491      -0.001706924       0.006859771            29
      12    -744.52437250       0.000457596       0.002889362            32
      13    -744.52485230       0.000479793       0.001006899            34
      14    -744.52470893      -0.000143364       0.000442202            37
      15    -744.52468287      -0.000026067       0.000143265            39
      16    -744.52470157       0.000018700       0.000050272            42
      17    -744.52470158       0.000000008       0.000015532            44
      18    -744.52470016      -0.000001417       0.000004945            47
      19    -744.52470005      -0.000000104       0.000002048            50
      20    -744.52470018       0.000000131       0.000000896            52

    CHF Iterations converged

    Ind20,r (A<-B)      =    -0.009874439039 [Eh]
    Ind20,r (B<-A)      =    -0.744524700185 [Eh]
    Ind20,r             =    -0.754399139224 [Eh]
    Exch-Ind20,r (A<-B) =     0.008724973763 [Eh]
    Exch-Ind20,r (B<-A) =     0.449912004674 [Eh]
    Exch-Ind20,r        =     0.458636978437 [Eh]
    Disp20              =    -0.051831792143 [Eh]
    Disp20 (SS)         =    -0.025915896071 [Eh]
    Disp20 (OS)         =    -0.025915896071 [Eh]
    Exch-Disp20         =     0.013817248182 [Eh]
    Exch-Disp20 (SS)    =     0.007119872643 [Eh]
    Exch-Disp20 (OS)    =     0.006697375539 [Eh]

    SAPT Results 
  --------------------------------------------------------------------------------------------------------
    Electrostatics              -1514.63532890 [mEh]    -950.44801821 [kcal/mol]   -3976.67450817 [kJ/mol]
      Elst10,r                  -1514.63532890 [mEh]    -950.44801821 [kcal/mol]   -3976.67450817 [kJ/mol]

    Exchange                      419.45163312 [mEh]     263.20987357 [kcal/mol]    1101.27011104 [kJ/mol]
      Exch10                      419.45163312 [mEh]     263.20987357 [kcal/mol]    1101.27011104 [kJ/mol]
      Exch10(S^2)                 408.66094400 [mEh]     256.43861392 [kcal/mol]    1072.93916066 [kJ/mol]

    Induction                    -301.22118803 [mEh]    -189.01914919 [kcal/mol]    -790.85612022 [kJ/mol]
      Ind20,r                    -754.39913922 [mEh]    -473.39260687 [kcal/mol]   -1980.67466715 [kJ/mol]
      Exch-Ind20,r                458.63697844 [mEh]     287.79904899 [kcal/mol]    1204.15122099 [kJ/mol]
      delta HF,r (2)               -5.45902724 [mEh]      -3.42559131 [kcal/mol]     -14.33267405 [kJ/mol]

    Dispersion                    -38.01454396 [mEh]     -23.85448648 [kcal/mol]     -99.80717142 [kJ/mol]
      Disp20                      -51.83179214 [mEh]     -32.52494061 [kcal/mol]    -136.08435152 [kJ/mol]
      Exch-Disp20                  13.81724818 [mEh]       8.67045414 [kcal/mol]      36.27718010 [kJ/mol]
      Disp20 (SS)                 -25.91589607 [mEh]     -16.26247031 [kcal/mol]     -68.04217576 [kJ/mol]
      Disp20 (OS)                 -25.91589607 [mEh]     -16.26247031 [kcal/mol]     -68.04217576 [kJ/mol]
      Exch-Disp20 (SS)              7.11987264 [mEh]       4.46778754 [kcal/mol]      18.69322305 [kJ/mol]
      Exch-Disp20 (OS)              6.69737554 [mEh]       4.20266660 [kcal/mol]      17.58395706 [kJ/mol]

  Total HF                      -1396.40488381 [mEh]    -876.25729382 [kcal/mol]   -3666.26051735 [kJ/mol]
  Total SAPT0                   -1434.41942777 [mEh]    -900.11178030 [kcal/mol]   -3766.06768877 [kJ/mol]

  Special recipe for scaled SAPT0 (see Manual):
    Electrostatics sSAPT0       -1514.63532890 [mEh]    -950.44801821 [kcal/mol]   -3976.67450817 [kJ/mol]
    Exchange sSAPT0               419.45163312 [mEh]     263.20987357 [kcal/mol]    1101.27011104 [kJ/mol]
    Induction sSAPT0             -263.92250904 [mEh]    -165.61387477 [kcal/mol]    -692.92845203 [kJ/mol]
    Dispersion sSAPT0             -36.89085545 [mEh]     -23.14936129 [kcal/mol]     -96.85692763 [kJ/mol]
  Total sSAPT0                  -1395.99706027 [mEh]    -876.00138069 [kcal/mol]   -3665.18977680 [kJ/mol]
  --------------------------------------------------------------------------------------------------------

*** tstop() called on osmium at Sat Jan 16 19:34:21 2021
Module time:
	user time   =    1455.24 seconds =      24.25 minutes
	system time =      80.77 seconds =       1.35 minutes
	total time  =        268 seconds =       4.47 minutes
Total time:
	user time   =    3050.50 seconds =      50.84 minutes
	system time =     174.59 seconds =       2.91 minutes
	total time  =        557 seconds =       9.28 minutes

  //>>>>>>>>>>>>>>>>>>>>>>>>>>>>>>>>>>>//
  //         Monomer Basis SAPT        //
  //<<<<<<<<<<<<<<<<<<<<<<<<<<<<<<<<<<<//


*** tstart() called on osmium
*** at Sat Jan 16 19:34:21 2021

        SAPT0  
    Ed Hohenstein
     6 June 2009

      Orbital Information
  --------------------------
    NSO        =       728
    NSO A      =        36
    NSO B      =       692
    NMO        =       728
    NMO A      =        36
    NMO B      =       692
    NRI        =      1805
    NOCC A     =         9
    NOCC B     =        77
    FOCC A     =         0
    FOCC B     =         0
    NVIR A     =        27
    NVIR B     =       615

    Elst10,r            =    -1.535064287154 [Eh]
    Exch10              =     0.444203060055 [Eh]
    Exch10 (S^2)        =     0.432226170722 [Eh]

    Iter     Energy [mEh]          dE [mEh]         Residual      Time [s]
       1      -3.59535018       3.595350182      11.048714575             0
       2      -3.73911064       0.143760456       1.872210399             0
       3      -3.82226483       0.083154189       0.166050533             0
       4      -3.82286567       0.000600844       0.044534608             0
       5      -3.82197280      -0.000892868       0.006939581             0
       6      -3.82206250       0.000089698       0.000806207             0
       7      -3.82205803      -0.000004477       0.000049076             0
       8      -3.82205818       0.000000155       0.000003240             0
       9      -3.82205817      -0.000000006       0.000000178             0

    CHF Iterations converged


    Iter     Energy [mEh]          dE [mEh]         Residual      Time [s]
       1    -560.38584222     560.385842219     337.166399608             3
       2    -465.14029110     -95.245551123      67.487602511             5
       3    -480.82733793      15.687046832      29.651335963             7
       4    -493.34100909      12.513671164       8.255278273            10
       5    -494.01808245       0.677073360       4.575259745            12
       6    -492.68021093      -1.337871520       1.611652644            14
       7    -492.65895757      -0.021253364       0.552069567            17
       8    -492.76322930       0.104271730       0.171462484            19
       9    -492.77575720       0.012527907       0.049847482            21
      10    -492.77089923      -0.004857973       0.018232959            24
      11    -492.76922485      -0.001674377       0.005772614            26
      12    -492.76933107       0.000106218       0.002640014            28
      13    -492.76969984       0.000368772       0.000999184            31
      14    -492.76960455      -0.000095296       0.000401432            33
      15    -492.76957809      -0.000026455       0.000122920            35
      16    -492.76958837       0.000010275       0.000042157            38
      17    -492.76958952       0.000001152       0.000013052            40
      18    -492.76958879      -0.000000729       0.000004417            42
      19    -492.76958866      -0.000000133       0.000001755            45
      20    -492.76958872       0.000000064       0.000000753            47

    CHF Iterations converged

    Ind20,r (A<-B)      =    -0.003822058174 [Eh]
    Ind20,r (B<-A)      =    -0.492769588723 [Eh]
    Ind20,r             =    -0.496591646897 [Eh]
    Exch-Ind20,r (A<-B) =     0.004280508076 [Eh]
    Exch-Ind20,r (B<-A) =     0.217913409901 [Eh]
    Exch-Ind20,r        =     0.222193917977 [Eh]
    Disp20              =    -0.040383357417 [Eh]
    Disp20 (SS)         =    -0.020191678709 [Eh]
    Disp20 (OS)         =    -0.020191678709 [Eh]
    Exch-Disp20         =     0.007626951948 [Eh]
    Exch-Disp20 (SS)    =     0.003520660798 [Eh]
    Exch-Disp20 (OS)    =     0.004106291150 [Eh]

    SAPT Results 
  --------------------------------------------------------------------------------------------------------
    Electrostatics              -1535.06428715 [mEh]    -963.26738305 [kcal/mol]   -4030.31073067 [kJ/mol]
      Elst10,r                  -1535.06428715 [mEh]    -963.26738305 [kcal/mol]   -4030.31073067 [kJ/mol]

    Exchange                      444.20306005 [mEh]     278.74162847 [kcal/mol]    1166.25497350 [kJ/mol]
      Exch10                      444.20306005 [mEh]     278.74162847 [kcal/mol]    1166.25497350 [kJ/mol]
      Exch10(S^2)                 432.22617072 [mEh]     271.22601694 [kcal/mol]    1134.80965489 [kJ/mol]

    Induction                    -310.62856745 [mEh]    -194.92236890 [kcal/mol]    -815.55519149 [kJ/mol]
      Ind20,r                    -496.59164690 [mEh]    -311.61596303 [kcal/mol]   -1303.80118930 [kJ/mol]
      Exch-Ind20,r                222.19391798 [mEh]     139.42878855 [kcal/mol]     583.37005128 [kJ/mol]
      delta HF,r (2)              -36.23083853 [mEh]     -22.73519442 [kcal/mol]     -95.12405346 [kJ/mol]

    Dispersion                    -32.75640547 [mEh]     -20.55495476 [kcal/mol]     -86.00193071 [kJ/mol]
      Disp20                      -40.38335742 [mEh]     -25.34093936 [kcal/mol]    -106.02649029 [kJ/mol]
      Exch-Disp20                   7.62695195 [mEh]       4.78598460 [kcal/mol]      20.02455958 [kJ/mol]
      Disp20 (SS)                 -20.19167871 [mEh]     -12.67046968 [kcal/mol]     -53.01324515 [kJ/mol]
      Disp20 (OS)                 -20.19167871 [mEh]     -12.67046968 [kcal/mol]     -53.01324515 [kJ/mol]
      Exch-Disp20 (SS)              3.52066080 [mEh]       2.20924800 [kcal/mol]       9.24349365 [kJ/mol]
      Exch-Disp20 (OS)              4.10629115 [mEh]       2.57673660 [kcal/mol]      10.78106593 [kJ/mol]

  Total HF                      -1401.48979455 [mEh]    -879.44812348 [kcal/mol]   -3679.61094866 [kJ/mol]
  Total SAPT0                   -1434.24620002 [mEh]    -900.00307824 [kcal/mol]   -3765.61287937 [kJ/mol]

  Special recipe for scaled SAPT0 (see Manual):
    Electrostatics sSAPT0       -1535.06428715 [mEh]    -963.26738305 [kcal/mol]   -4030.31073067 [kJ/mol]
    Exchange sSAPT0               444.20306005 [mEh]     278.74162847 [kcal/mol]    1166.25497350 [kJ/mol]
    Induction sSAPT0             -291.64118797 [mEh]    -183.00760840 [kcal/mol]    -765.70383353 [kJ/mol]
    Dispersion sSAPT0             -32.10465122 [mEh]     -20.14597279 [kcal/mol]     -84.29075016 [kJ/mol]
  Total sSAPT0                  -1414.60706629 [mEh]    -887.67933577 [kcal/mol]   -3714.05034085 [kJ/mol]
  --------------------------------------------------------------------------------------------------------

*** tstop() called on osmium at Sat Jan 16 19:37:10 2021
Module time:
	user time   =     904.46 seconds =      15.07 minutes
	system time =      52.64 seconds =       0.88 minutes
	total time  =        169 seconds =       2.82 minutes
Total time:
	user time   =    3954.96 seconds =      65.92 minutes
	system time =     227.23 seconds =       3.79 minutes
	total time  =        726 seconds =      12.10 minutes


    SAPT Charge Transfer Analysis
  ------------------------------------------------------------------------------------------------
    SAPT Induction (Dimer Basis)     -295.7622 [mEh]    -185.5936 [kcal/mol]    -776.5234 [kJ/mol]
    SAPT Induction (Monomer Basis)   -274.3977 [mEh]    -172.1872 [kcal/mol]    -720.4311 [kJ/mol]
    SAPT Charge Transfer              -21.3644 [mEh]     -13.4064 [kcal/mol]     -56.0923 [kJ/mol]


    Psi4 stopped on: Saturday, 16 January 2021 07:37PM
    Psi4 wall time for execution: 0:12:06.39

*** Psi4 exiting successfully. Buy a developer a beer!
