                  Welcome to Q-Chem
     A Quantum Leap Into The Future Of Chemistry


 Q-Chem 5.3 (devel), Q-Chem, Inc., Pleasanton, CA (2020)

 Yihan Shao,  Zhengting Gan,  E. Epifanovsky,  A. T. B. Gilbert,  M. Wormit,  
 J. Kussmann,  A. W. Lange,  A. Behn,  Jia Deng,  Xintian Feng,  D. Ghosh,  
 M. Goldey,  P. R. Horn,  L. D. Jacobson,  I. Kaliman,  T. Kus,  A. Landau,  
 Jie Liu,  E. I. Proynov,  R. M. Richard,  R. P. Steele,  E. J. Sundstrom,  
 H. L. Woodcock III,  P. M. Zimmerman,  D. Zuev,  B. Alam,  B. Albrecht,  
 A. Aldossary,  E. Alguire,  S. A. Baeppler,  D. Barton,  Z. Benda,  
 Y. A. Bernard,  E. J. Berquist,  K. B. Bravaya,  H. Burton,  K. Carter-Fenk,  
 D. Casanova,  Chun-Min Chang,  Yunqing Chen,  A. Chien,  K. D. Closser,  
 M. P. Coons,  S. Coriani,  S. Dasgupta,  A. L. Dempwolff,  M. Diedenhofen,  
 Hainam Do,  R. G. Edgar,  Po-Tung Fang,  S. Faraji,  S. Fatehi,  
 Qingguo Feng,  J. Fosso-Tande,  J. Gayvert,  Qinghui Ge,  A. Ghysels,  
 G. Gidofalvi,  J. Gomes,  J. Gonthier,  S. Gulania,  A. Gunina,  D. Hait,  
 M. W. D. Hanson-Heine,  S. Hammes-Schiffer,  P. H. P. Harbach,  
 A. W. Hauser,  M. F. Herbst,  J. E. Herr,  E. G. Hohenstein,  Z. C. Holden,  
 S. Houck,  Kerwin Hui,  B. C. Huynh,  M. Ivanov,  T.-C. Jagau,  Hyunjun Ji,  
 B. Kaduk,  K. Khistyaev,  Jaehoon Kim,  P. Klunzinger,  K. Koh,  
 D. Kosenkov,  L. Koulias,  T. Kowalczyk,  C. M. Krauter,  A. Kunitsa,  
 Ka Un Lao,  A. Laurent,  K. V. Lawler,  Joonho Lee,  D. Lefrancois,  
 S. Lehtola,  D. S. Levine,  Yi-Pei Li,  You-Sheng Lin,  Fenglai Liu,  
 Kuan-Yu Liu,  E. Livshits,  M. Loipersberger,  A. Luenser,  A. Manjanath,  
 P. Manohar,  E. Mansoor,  S. F. Manzer,  Shan-Ping Mao,  Yuezhi Mao,  
 N. Mardirossian,  A. V. Marenich,  T. Markovich,  L. A. Martinez-Martinez,  
 S. A. Maurer,  N. J. Mayhall,  S. C. McKenzie,  J.-M. Mewes,  P. Morgante,  
 A. F. Morrison,  J. W. Mullinax,  K. Nanda,  T. S. Nguyen-Beck,  
 R. Olivares-Amaya,  K. J. Oosterbaan,  J. A. Parkhill,  S. K. Paul,  
 F. Pavosevic,  Zheng Pei,  T. M. Perrine,  F. Plasser,  P. Pokhilko,  
 S. Prager,  A. Prociuk,  E. Ramos,  B. Rana,  D. R. Rehn,  F. Rob,  
 E. Rossomme,  M. Scheurer,  M. Schneider,  N. Sergueev,  S. M. Sharada,  
 S. Sharma,  W. Skomorowski,  D. W. Small,  T. Stauch,  C. J. Stein,  
 T. Stein,  Yu-Chuan Su,  S. P. Veccham,  Zhen Tao,  A. J. W. Thom,  
 A. Tkatchenko,  T. Tsuchimochi,  N. M. Tubman,  L. Vogt,  M. L. Vidal,  
 O. Vydrov,  M. A. Watson,  J. Wenzel,  M. de Wergifosse,  T. A. Wesolowski,  
 A. White,  J. Witte,  A. Yamada,  Jun Yang,  K. Yao,  S. Yeganeh,  
 S. R. Yost,  Zhi-Qiang You,  A. Zech,  Igor Ying Zhang,  Xing Zhang,  
 Yan Zhao,  Ying Zhu,  B. R. Brooks,  G. K. L. Chan,  C. J. Cramer,  
 M. S. Gordon,  W. J. Hehre,  A. Klamt,  M. W. Schmidt,  C. D. Sherrill,  
 D. G. Truhlar,  A. Aspuru-Guzik,  R. Baer,  A. T. Bell,  N. A. Besley,  
 Jeng-Da Chai,  A. E. DePrince, III,  R. A. DiStasio Jr.,  A. Dreuw,  
 B. D. Dunietz,  T. R. Furlani,  Chao-Ping Hsu,  Yousung Jung,  Jing Kong,  
 D. S. Lambrecht,  WanZhen Liang,  C. Ochsenfeld,  V. A. Rassolov,  
 L. V. Slipchenko,  J. E. Subotnik,  T. Van Voorhis,  J. M. Herbert,  
 A. I. Krylov,  P. M. W. Gill,  M. Head-Gordon

 Contributors to earlier versions of Q-Chem not listed above: 
 R. D. Adamson,  B. Austin,  J. Baker,  G. J. O. Beran,  K. Brandhorst,  
 S. T. Brown,  E. F. C. Byrd,  A. K. Chakraborty,  C.-L. Cheng,  
 Siu Hung Chien,  D. M. Chipman,  D. L. Crittenden,  H. Dachsel,  
 R. J. Doerksen,  A. D. Dutoi,  L. Fusti-Molnar,  W. A. Goddard III,  
 A. Golubeva-Zadorozhnaya,  S. R. Gwaltney,  G. Hawkins,  A. Heyden,  
 S. Hirata,  G. Kedziora,  F. J. Keil,  C. Kelley,  Jihan Kim,  R. A. King,  
 R. Z. Khaliullin,  P. P. Korambath,  W. Kurlancheek,  A. M. Lee,  M. S. Lee,  
 S. V. Levchenko,  Ching Yeh Lin,  D. Liotard,  R. C. Lochan,  I. Lotan,  
 P. E. Maslen,  N. Nair,  D. P. O'Neill,  D. Neuhauser,  E. Neuscamman,  
 C. M. Oana,  R. Olson,  B. Peters,  R. Peverati,  P. A. Pieniazek,  
 Y. M. Rhee,  J. Ritchie,  M. A. Rohrdanz,  E. Rosta,  N. J. Russ,  
 H. F. Schaefer III,  N. E. Schultz,  N. Shenvi,  A. C. Simmonett,  A. Sodt,  
 D. Stuck,  K. S. Thanthiriwatte,  V. Vanovschi,  Tao Wang,  A. Warshel,  
 C. F. Williams,  Q. Wu,  X. Xu,  W. Zhang

 Please cite Q-Chem as follows:
 Y. Shao et al., Mol. Phys. 113, 184-215 (2015)
 DOI: 10.1080/00268976.2014.952696

 Q-Chem 5.3.2 for Intel X86 EM64T Linux

 Parts of Q-Chem use Armadillo 9.800.1 (Horizon Scraper).
 http://arma.sourceforge.net/

Compilation information
-----------------------

 SVN revision             | 35976
 SVN branch               | trunk
 Last SVN revision        | 35971
 Last SVN author          | tarek.scheele
 Hostname                 | osmium
 User                     | eric
 System                   | Linux-5.8.14-arch1-1
 Processor                | x86_64
 Compiler                 | GNU
 C compiler version       | 9.3.0
 CXX compiler version     | 9.3.0
 Fortran compiler version | 9.3.0
 Configuration time       | 2021-02-25 00:06:41


 Q-Chem begins on Thu Feb 25 01:29:45 2021  

Host: osmium
0

     Scratch files written to /tmp/qchem/qchem3444825//
Processing $rem in /home/eric/data/opt/apps/qchem/archive/r35971-g9.3.0-openblas/config/preferences:
Processing $rem in /home/eric/.qchemrc:
Symmetry turned off for PCM/SM12/SMD calculation

 Q-Chem warning in module libgen/rem_setup.C, line 2996:

 Neither GIA nor STOLL is specified by user. Use STOLL as the default


Checking the input file for inconsistencies... 	...done.

--------------------------------------------------------------
User input:
--------------------------------------------------------------
$molecule
-2 1
--
2 1
Ca       -0.0189445819    0.0168856118    0.0029552556
--
-4 1
O         0.0059357732    0.0539462402    2.0666953554
C         1.1192677168    0.0565124029    2.6707956290
O         1.2573714505    0.0395244414    3.9053082702
C         2.3884653211    0.1278723578    1.8240492753
H         3.1314435353   -0.5492127077    2.2533000325
H         2.7767185111    1.1399567901    1.9619064517
N         2.1959491132   -0.1350066786    0.3964608780
C         2.7399855870    0.9263867367   -0.4406785973
H         2.8099384384    0.5688976476   -1.4702186279
H         3.7421857655    1.2387509233   -0.1326537005
C         2.5897052603   -1.4944006285    0.0129942865
H         2.6749552922   -1.5336926682   -1.0739775698
H         3.5697888367   -1.7626000133    0.4232645051
C         1.5535070376   -2.5061048344    0.4841153080
H         1.4573549177   -2.4562572045    1.5697776586
H         1.8934956444   -3.5174141170    0.2341259076
N         0.2426874615   -2.2169078213   -0.1065384835
C        -0.8986497874   -2.7109933035    0.6529204644
H        -0.6719353043   -2.6464020709    1.7193064090
H        -1.1376935237   -3.7548077148    0.4292616747
C         0.1689683890   -2.5815163035   -1.5231226018
H        -0.8081969643   -3.0209737048   -1.7379240610
H         0.9132956900   -3.3412529777   -1.7746027711
C         0.3135749725   -1.4133154654   -2.4968563041
O         0.5092072377   -1.6863795543   -3.6927709236
O         0.1881693623   -0.2414664394   -2.0325203989
C         1.8191836002    2.1528535142   -0.4809782972
O         2.3167054138    3.2405970779   -0.8091789340
O         0.5895630873    1.9703752935   -0.2125263301
C        -2.1472787881   -1.8468625277    0.4343522829
O        -3.2537365269   -2.3577093572    0.6653267987
O        -1.9679111967   -0.6429723725    0.0657648319
$end

$rem
 jobtype = eda
 method = wb97x-d
 basis = def2-tzvp
 mem_static = 1000
 mem_total = 16000
 solvent_method = smd
$end
--------------------------------------------------------------
 ----------------------------------------------------------------
             Standard Nuclear Orientation (Angstroms)
    I     Atom           X                Y                Z
 ----------------------------------------------------------------
    1      Ca     -0.0189445819     0.0168856118     0.0029552556
    2      O       0.0059357732     0.0539462402     2.0666953554
    3      C       1.1192677168     0.0565124029     2.6707956290
    4      O       1.2573714505     0.0395244414     3.9053082702
    5      C       2.3884653211     0.1278723578     1.8240492753
    6      H       3.1314435353    -0.5492127077     2.2533000325
    7      H       2.7767185111     1.1399567901     1.9619064517
    8      N       2.1959491132    -0.1350066786     0.3964608780
    9      C       2.7399855870     0.9263867367    -0.4406785973
   10      H       2.8099384384     0.5688976476    -1.4702186279
   11      H       3.7421857655     1.2387509233    -0.1326537005
   12      C       2.5897052603    -1.4944006285     0.0129942865
   13      H       2.6749552922    -1.5336926682    -1.0739775698
   14      H       3.5697888367    -1.7626000133     0.4232645051
   15      C       1.5535070376    -2.5061048344     0.4841153080
   16      H       1.4573549177    -2.4562572045     1.5697776586
   17      H       1.8934956444    -3.5174141170     0.2341259076
   18      N       0.2426874615    -2.2169078213    -0.1065384835
   19      C      -0.8986497874    -2.7109933035     0.6529204644
   20      H      -0.6719353043    -2.6464020709     1.7193064090
   21      H      -1.1376935237    -3.7548077148     0.4292616747
   22      C       0.1689683890    -2.5815163035    -1.5231226018
   23      H      -0.8081969643    -3.0209737048    -1.7379240610
   24      H       0.9132956900    -3.3412529777    -1.7746027711
   25      C       0.3135749725    -1.4133154654    -2.4968563041
   26      O       0.5092072377    -1.6863795543    -3.6927709236
   27      O       0.1881693623    -0.2414664394    -2.0325203989
   28      C       1.8191836002     2.1528535142    -0.4809782972
   29      O       2.3167054138     3.2405970779    -0.8091789340
   30      O       0.5895630873     1.9703752935    -0.2125263301
   31      C      -2.1472787881    -1.8468625277     0.4343522829
   32      O      -3.2537365269    -2.3577093572     0.6653267987
   33      O      -1.9679111967    -0.6429723725     0.0657648319
 ----------------------------------------------------------------
 Nuclear Repulsion Energy =        2275.38453288 hartrees
 There are       86 alpha and       86 beta electrons
 Requested basis set is def2-TZVP
 There are 282 shells and 728 basis functions

 Total QAlloc Memory Limit  16000 MB
 Mega-Array Size       978 MB
 MEM_STATIC part      1000 MB

 Citation of the SMD model:
 Marenich, A.V.; Cramer, C.J.; Truhlar, D.G.
 J. Phys. Chem. B 2009, 113, 6378-6396.
 iSolventCode=           1
 Solvent: water                                                           

 vradii
            1           2           3           4           5           6
    1   2.7257999   1.5200000   1.8500000   1.5200000   1.8500000   1.2000000
            7           8           9          10          11          12
    1   1.2000000   1.8900000   1.8500000   1.2000000   1.2000000   1.8500000
           13          14          15          16          17          18
    1   1.2000000   1.2000000   1.8500000   1.2000000   1.2000000   1.8900000
           19          20          21          22          23          24
    1   1.8500000   1.2000000   1.2000000   1.8500000   1.2000000   1.2000000
           25          26          27          28          29          30
    1   1.8500000   1.5200000   1.5200000   1.8500000   1.5200000   1.5200000
           31          32          33
    1   1.8500000   1.5200000   1.5200000
 Changing PCM_VDW_RADII to SMD_RADIUS
 Discretize the solute cavity surface with Lebedev spheres
	Using 110 Lebedev grid points for each H atom
	Using 194 Lebedev grid points for other atoms
	Atomic van der Waals radii will be scaled by 1.20
 Remove points where switching function is < 1.0e-08
 Keep 2243 surface tesserae and discard 3151 interior tesserae
 Molecular Surface Area = 257.129 Angst**2
 A cutoff of  1.0D-11 yielded  29818 shell pairs
 There are    193216 function pairs (    247094 Cartesian)
 Smallest overlap matrix eigenvalue = 7.78E-05

 Scale SEOQF with 1.000000e-01/1.000000e-01/1.000000e-01

 Standard Electronic Orientation quadrupole field applied
 Nucleus-field energy     =     0.0000000032 hartrees

 -----------------------------------------------------------------------
  General SCF calculation program by
  Eric Jon Sundstrom, Paul Horn, Yuezhi Mao, Dmitri Zuev, Alec White,
  David Stuck, Shaama M.S., Shane Yost, Joonho Lee, David Small,
  Daniel Levine, Susi Lehtola, Hugh Burton, Evgeny Epifanovsky,
  Bang C. Huynh
 -----------------------------------------------------------------------
================================================================
                 ALMO-EDA with the EDA2 driver                  
================================================================
 The second-generation ALMO-EDA (for DFT):                      
 P. R. Horn, Y. Mao and M. Head-Gordon, PCCP, 18, 23067 (2016)  
 Decomposition of the frozen energy:                            
 P. R. Horn, Y. Mao and M. Head-Gordon, JCP, 144, 114107 (2016) 
 Incorporation of implicit solvents:                            
 Y. Mao, M. Loipersberger et al. Chem. Sci., 12, 1398 (2021)    
Using eda2 option set 2
Option set summary: Frozen orbital wavefunction, initial wavefunction decomposition, and traditional AO-based POL.
--------------------------------
Printing EDA Options
--------------------------------
eda_child_super_basis      0
fragmo_guess_mode          0
child_mp                   0
child_mp_orders            0
cls_elec                   1
cls_disp                   0
scfmi_mode                 1
scfmi_occs                 0
scfmi_virts                0
frz_relax                  0
frz_relax_method           0
dc_pen_start               0
dc_pen_conv                0
dc_pen_increment           0
dc_pen_steps               0
dc_pen_thresh_factor       0
dc_pen_pre_newton_thresh   0
frz_ortho_decomp           1
frz_ortho_decomp_conv      6
plot_mo_ortho_frz          0
frgm_method                2
scfmi_freeze_ss            0
separate_rehyb             0
plot_diff_den              0
eda_nocv                   0
eda_vct_relax              1
disp_free_x                0
disp_free_c                0
eda_bsse                   0
eda_pct_a                  1
eda_covp                   0
--------------------------------
Attempting to make child job directory: /tmp/qchem/qchem3444825//Frg1/
Attempting to make child job directory: /tmp/qchem/qchem3444825//Frg2/
Creating input file /tmp/qchem/qchem3444825/Frg1.input
using default PutDataFrgm: nothing
calling putenv with: QCSCRATCH=/tmp/qchem/qchem3444825/ 
Spawning Job For Fragment 0
Done Job For Fragment 0
calling putenv with: QCSCRATCH=/tmp/qchem 
calling putenv with: QCTHREADS=4 
Creating input file /tmp/qchem/qchem3444825/Frg2.input
using default PutDataFrgm: nothing
calling putenv with: QCSCRATCH=/tmp/qchem/qchem3444825/ 
Spawning Job For Fragment 1
Done Job For Fragment 1
calling putenv with: QCSCRATCH=/tmp/qchem 
calling putenv with: QCTHREADS=4 
Doing General SCFMI
 Exchange:     0.2220 Hartree-Fock + 1.0000 wB97X-D + LR-HF
 Correlation:  1.0000 wB97X-D
 Using SG-2 standard quadrature grid
 Dispersion:   Grimme D
performing fock build before subrot guess so that all methods have access
Printing subrot_rss_gen Method Specification:
Occupied Subspace Method is 0
Virtual Subspace Method is 0
Energy of the unrelaxed supersystem initial determinant -1777.324479240250
performing fock build before subrot guess so that all methods have access
Printing subrot_rss_gen Method Specification:
Occupied Subspace Method is 0
Virtual Subspace Method is 0
Energy of the unrelaxed supersystem initial determinant w/ solvent -1777.661988525008
write pseudocanon occs and virts to disk
write pseudocanon orbital energies to disk
Tolerance of ortho_decomp_scf: 1.00e-06
GDM subspace size: 20
Beginning the Orthogonal Decomposition of the Initial Supersystem Wavefunction
    1   -1775.1145628088      4.77e-01     ortho_decomp Preconditoned Steepest Descent
    2   -1775.4051150580      4.37e-03     ortho_decomp BFGS Step
    3   -1775.4052327458      2.10e-04     ortho_decomp BFGS Step
    4   -1775.4052330087      8.23e-06     ortho_decomp BFGS Step
    5   -1775.4052330091      2.18e-07     ortho_decomp 00000 Convergence criterion met
 Hartree-Fock
 Hartree-Fock
 Hartree-Fock
Doing General SCFMI
 Exchange:     0.2220 Hartree-Fock + 1.0000 wB97X-D + LR-HF
 Correlation:  1.0000 wB97X-D
 Using SG-2 standard quadrature grid
 Dispersion:   Grimme D
performing fock build at end of subrot_r(subrot) constructor so that all methods have access
<S^2> of initial wavefunction before polarization iterations 0.0000000000
Beginning iterations for the determination of the polarized wavefunction
Energy prior to optimization (guess energy) = -1777.661988525010
Begin Timing: Total SCF Calculation
begin iterations for algorithm: DIIS         
the SCF tolerance is set to 1.00e-08
    1   -1777.6619885250      5.85e-04     00000 
    2   -1777.7170769454      4.46e-04     00000 
    3   -1777.7507757605      1.62e-04     00000 
    4   -1777.7546895362      4.47e-05     00000 
    5   -1777.7549963822      1.71e-05     00000 
    6   -1777.7550482301      8.09e-06     00000 
    7   -1777.7550613927      4.96e-06     00000 
    8   -1777.7550660421      3.14e-06     00000 
    9   -1777.7550681635      1.57e-06     00000 
   10   -1777.7550685841      9.94e-07     00000 
   11   -1777.7550687368      4.58e-07     00000 
   12   -1777.7550687682      2.53e-07     00000 
   13   -1777.7550687814      1.34e-07     00000 
   14   -1777.7550687853      6.79e-08     00000 
   15   -1777.7550687863      3.58e-08     00000 
   16   -1777.7550687851      1.92e-08     00000 
   17   -1777.7550687886      1.06e-08     00000 
   18   -1777.7550687936      4.77e-09     00000 Convergence criterion met
write pseudocanon occs and virts to disk
write pseudocanon orbital energies to disk
Timing for Total SCF: 1468.00s (wall), 5579.96s (cpu)
<S^2> of polarized wavefunction after polarization iterations 0.0000000000
relaxing scfmi constraint to allow all rotations in the entire AO span
Doing General SCFMI
 Exchange:     0.2220 Hartree-Fock + 1.0000 wB97X-D + LR-HF
 Correlation:  1.0000 wB97X-D
 Using SG-2 standard quadrature grid
 Dispersion:   Grimme D
performing fock build at end of subrot_r(subrot) constructor so that all methods have access
<S^2> of polarized wavefunction before ct-allowed iterations 0.0000000000
Beginning iterations for the determination of the CT-Allowed wavefunction
Energy prior to optimization (guess energy) = -1777.755068783171
Begin Timing: Total SCF Calculation
begin iterations for algorithm: DIIS         
the SCF tolerance is set to 1.00e-08
    1   -1777.7550687832      4.09e-04     00000 
    2   -1777.8271068768      9.41e-05     00000 
    3   -1777.8298070287      4.74e-05     00000 
    4   -1777.8302272521      1.86e-05     00000 
    5   -1777.8302831287      6.74e-06     00000 
    6   -1777.8302922279      1.49e-06     00000 
    7   -1777.8302926603      5.56e-07     00000 
    8   -1777.8302927410      1.67e-07     00000 
    9   -1777.8302927500      3.54e-08     00000 
   10   -1777.8302927538      1.36e-08     00000 
   11   -1777.8302927626      6.31e-09     00000 Convergence criterion met
write pseudocanon occs and virts to disk
write pseudocanon orbital energies to disk
Timing for Total SCF: 927.00s (wall), 3527.46s (cpu)
<S^2> of ct_allowed wavefunction after ct-allowed iterations 0.0000000000
Perturbative CTA
Number of subspaces: 2
Appending the orthogonal complement of the current SCFMI subspace
Number of subspaces in CTA becomes 2
Doing General SCFMI
 Exchange:     0.2220 Hartree-Fock + 1.0000 wB97X-D + LR-HF
 Correlation:  1.0000 wB97X-D
 Using SG-2 standard quadrature grid
 Dispersion:   Grimme D
performing fock build at end of subrot_r(subrot) constructor so that all methods have access
PCT method is RS
RS amplitude (X) obtained in 5 iterations
X in RS PT satisfies the quadratic equation

================================
        Results of EDA2         
================================
Basic EDA Quantities
--------------------
Fragment Energies (Ha):
1 -677.2949559068
2-1100.2839277346
--------------------
  E_prp (kJ/mol) = 0.0000
  E_sol (kJ/mol) = 3341.4512
  E_frz (kJ/mol) = -3517.9885 (unscreened)
 [E_frz(solv) = -176.5372 kJ/mol (unscreened FRZ + SOL)]
  E_pol (kJ/mol) = -244.3851
  E_vct (kJ/mol) = -197.5029
  E_int (kJ/mol) = -618.4252
--------------------


Decomposition of frozen interaction energy
--------------------
  ------------------------------
  Classical Frozen Decomposition (unscreened):
  ------------------------------
     E_cls_elec  (CLS ELEC)  (kJ/mol) = -4930.2601
     E_mod_pauli (MOD PAULI) (kJ/mol) = 1435.0270 (FRZ - CLS ELEC - DISP)
     E_disp      (DISP)      (kJ/mol) = -22.7554
  ------------------------------
  Classical Decomposition Terms with Solvent Contributions:
  ------------------------------
     E_sol_elec              (kJ/mol) = 3343.2092
     E_cls_elec(solv)        (kJ/mol) = -1587.0508 (CLS ELEC + SOL ELEC)
     E_sol_nonelec           (kJ/mol) = -1.7580
     E_mod_pauli(solv)       (kJ/mol) = 1433.2690 (MOD PAULI + SOL non-ELEC)
  --------------------
  ------------------------------
  Orthogonal Frozen Decomposition (unscreened):
  ------------------------------
     E_elec   (ELEC)   (kJ/mol) = -4830.3877
     E_pauli  (PAULI)  (kJ/mol) = 1335.1546
     E_disp   (DISP)   (kJ/mol) = -22.7554
  ------------------------------
  Orthogonal Decomposition Terms with Solvent Contribution:
  ------------------------------
     E_sol_elec        (kJ/mol) = 3343.2092
     E_elec(solv)      (kJ/mol) = -1487.1784 (ELEC + SOL ELEC)
     E_sol_nonelec     (kJ/mol) = -1.7580
     E_pauli(solv)     (kJ/mol) = 1333.3966 (PAULI + SOL non-ELEC)
  --------------------
--------------------

--------------------
Perturbative CT Analysis:
--------------------
  E_pct (kJ/mol) = -166.1224
  E_HO  (kJ/mol) = -31.3804 (VCT - PCT) 
  ---------------  
  PCT Energy lowering  (row to column, kJ/mol)
            1           2    
    1     0.00010    -7.03034
    2  -159.09198    -0.00022
  PCT Charge displacement (row to column, me-)
            1           2    
    1   -0.025312    0.907696
    2   80.883017  -11.831692
--------------------

Simplified EDA Summary (kJ/mol)
--------------------
 PREPARATION      0.0000
 SOLVATION        3341.4512
 FROZEN           -3517.9885 (unscreened ELEC + PAULI + DISP)
[ELEC + PAULI = -3495.2331, DISP = -22.7554]
 POLARIZATION    -244.3851
 CHARGE TRANSFER -197.5029
 TOTAL           -618.4252     (PRP + SOL + FRZ + POL + CT)
--------------------

 --------------------------------------------------------------

                    Orbital Energies (a.u.)
 --------------------------------------------------------------

 Alpha MOs
 -- Occupied --
******** -19.2030 -19.2030 -19.2028 -19.2028 -19.2022 -19.2022 -19.2017
-19.2016 -15.3406 -14.4371 -14.4371 -12.4560 -12.4552 -12.4550 -10.3853
-10.3852 -10.3836 -10.3836 -10.3061 -10.3058 -10.3057 -10.3057 -10.3052
-10.3052  -1.7202  -1.1581  -1.1568  -1.1524  -1.1509  -1.0775  -1.0759
 -1.0652  -1.0615  -1.0516  -1.0270  -0.9823  -0.9752  -0.9723  -0.8633
 -0.8319  -0.8296  -0.7855  -0.7318  -0.6804  -0.6251  -0.6168  -0.6160
 -0.6151  -0.5945  -0.5901  -0.5704  -0.5655  -0.5553  -0.5450  -0.5391
 -0.5317  -0.5315  -0.5246  -0.5175  -0.5173  -0.5124  -0.5068  -0.5025
 -0.4880  -0.4880  -0.4750  -0.4558  -0.4514  -0.4437  -0.4381  -0.4235
 -0.3742  -0.3697  -0.3671  -0.3646  -0.3627  -0.3595  -0.3549  -0.3493
 -0.3480  -0.3417  -0.3408  -0.3367  -0.3155  -0.3136
 -- Virtual --
  0.0751   0.0844   0.0850   0.0901   0.1051   0.1060   0.1105   0.1145
  0.1563   0.1566   0.1605   0.1684   0.1767   0.1890   0.1953   0.1988
  0.2010   0.2041   0.2074   0.2139   0.2234   0.2288   0.2353   0.2433
  0.2438   0.2547   0.2561   0.2646   0.2675   0.2793   0.2860   0.2876
  0.2948   0.2977   0.2978   0.3005   0.3134   0.3142   0.3182   0.3302
  0.3371   0.3506   0.3558   0.3626   0.3638   0.3693   0.3781   0.3799
  0.3849   0.3918   0.3945   0.3992   0.4025   0.4080   0.4141   0.4149
  0.4374   0.4387   0.4403   0.4427   0.4508   0.4572   0.4644   0.4650
  0.4717   0.4768   0.4841   0.4892   0.4945   0.4974   0.4981   0.5076
  0.5092   0.5139   0.5189   0.5237   0.5270   0.5294   0.5328   0.5414
  0.5457   0.5468   0.5535   0.5580   0.5619   0.5659   0.5675   0.5836
  0.5861   0.5878   0.5960   0.5976   0.6037   0.6164   0.6195   0.6201
  0.6285   0.6300   0.6309   0.6385   0.6412   0.6547   0.6632   0.6711
  0.6752   0.6828   0.6943   0.6995   0.7044   0.7116   0.7134   0.7383
  0.7436   0.7453   0.7494   0.7652   0.7662   0.7792   0.7869   0.7913
  0.7957   0.7993   0.8243   0.8315   0.8408   0.8516   0.8610   0.8685
  0.8774   0.8784   0.8870   0.8877   0.9086   0.9092   0.9216   0.9296
  0.9463   0.9509   0.9585   0.9665   0.9724   0.9780   0.9879   0.9974
  1.0051   1.0154   1.0198   1.0243   1.0343   1.0388   1.0495   1.0595
  1.0681   1.0708   1.0819   1.0991   1.1100   1.1105   1.1132   1.1391
  1.1413   1.1542   1.1590   1.1742   1.1762   1.1843   1.1874   1.1998
  1.2120   1.2265   1.2396   1.2505   1.2529   1.2542   1.2651   1.2779
  1.2791   1.2905   1.3194   1.3256   1.3432   1.3504   1.3543   1.3583
  1.3630   1.3837   1.3955   1.4105   1.4116   1.4397   1.4610   1.4672
  1.4740   1.4797   1.5043   1.5063   1.5131   1.5230   1.5433   1.5471
  1.5590   1.5756   1.5818   1.5932   1.6036   1.6075   1.6160   1.6194
  1.6261   1.6286   1.6339   1.6390   1.6557   1.6574   1.6661   1.6716
  1.6786   1.6936   1.6985   1.7074   1.7142   1.7292   1.7323   1.7377
  1.7450   1.7484   1.7557   1.7660   1.7696   1.7782   1.7793   1.8056
  1.8075   1.8154   1.8334   1.8592   1.8606   1.8748   1.8799   1.8831
  1.8910   1.9220   1.9264   1.9494   1.9535   1.9607   1.9763   1.9782
  1.9925   1.9957   1.9990   2.0117   2.0168   2.0248   2.0299   2.0437
  2.0534   2.0594   2.0970   2.0986   2.1014   2.1036   2.1167   2.1220
  2.1342   2.1366   2.1580   2.1604   2.1719   2.1738   2.1769   2.1813
  2.2018   2.2064   2.2121   2.2162   2.2209   2.2469   2.2507   2.2739
  2.2748   2.2807   2.2920   2.2994   2.3164   2.3290   2.3399   2.3459
  2.3563   2.3622   2.3801   2.3820   2.3935   2.3952   2.4112   2.4186
  2.4238   2.4419   2.4508   2.4667   2.4848   2.5044   2.5061   2.5239
  2.5273   2.5384   2.5410   2.5495   2.5705   2.5757   2.5789   2.6007
  2.6091   2.6105   2.6439   2.6450   2.6603   2.6646   2.6837   2.6911
  2.7016   2.7193   2.7284   2.7361   2.7472   2.7503   2.7685   2.7727
  2.7900   2.7934   2.7948   2.8059   2.8199   2.8274   2.8284   2.8433
  2.8552   2.8558   2.8631   2.8733   2.8823   2.9014   2.9027   2.9073
  2.9222   2.9377   2.9435   2.9555   2.9626   2.9649   2.9759   2.9950
  3.0121   3.0333   3.0461   3.0539   3.0611   3.0813   3.0840   3.0875
  3.1081   3.1103   3.1181   3.1214   3.1231   3.1325   3.1425   3.1579
  3.1736   3.1757   3.1865   3.1869   3.1872   3.1987   3.2087   3.2163
  3.2269   3.2337   3.2359   3.2384   3.2610   3.2635   3.2748   3.2801
  3.2843   3.2911   3.3028   3.3241   3.3280   3.3342   3.3369   3.3586
  3.3623   3.3693   3.3920   3.4036   3.4088   3.4141   3.4150   3.4190
  3.4413   3.4429   3.4456   3.4508   3.4601   3.4634   3.4754   3.4775
  3.4871   3.5007   3.5049   3.5085   3.5304   3.5348   3.5370   3.5398
  3.5473   3.5609   3.5650   3.5843   3.5968   3.6065   3.6126   3.6132
  3.6255   3.6261   3.6358   3.6426   3.6438   3.6439   3.6673   3.6851
  3.6882   3.6975   3.7010   3.7128   3.7247   3.7551   3.7713   3.7781
  3.7840   3.8065   3.8123   3.8247   3.8422   3.8463   3.8626   3.8824
  3.9106   3.9413   3.9421   3.9535   3.9867   4.0086   4.0164   4.0210
  4.0297   4.0325   4.0373   4.0558   4.0829   4.0851   4.1051   4.1130
  4.1155   4.1436   4.1588   4.1789   4.1879   4.2022   4.2095   4.2289
  4.2679   4.2871   4.3060   4.3945   4.3976   4.4150   4.4404   4.4749
  4.4765   4.4849   4.5338   4.5347   4.5769   4.5776   4.5925   4.6029
  4.6305   4.6537   4.6650   4.6795   4.7064   4.7208   4.7238   4.7602
  4.7683   4.8434   4.8554   4.8932   4.8975   4.9498   5.0053   5.0425
  5.1708   5.1930   5.2316   5.2378   5.2475   5.2584   5.2673   5.2703
  5.2718   5.2855   5.2863   5.2912   5.2952   5.2966   5.2993   5.3012
  5.3089   5.3119   5.3192   5.3473   5.3717   5.3970   5.4036   5.4255
  5.4278   5.4352   5.4534   5.4642   5.4809   5.5102   5.5275   5.5350
  5.5509   5.5683   5.5984   5.6352   5.6466   5.6466   5.6557   5.6591
  5.6662   5.6675   5.6801   5.6892   5.7494   5.7551   5.7583   5.7685
  5.7887   5.8006   5.8636   5.8757   5.9479   5.9486   5.9595   5.9831
  6.0405   6.0703   6.1549   6.1621   6.1709   6.1772   6.2177   6.2183
  6.2429   6.2515   6.2692   6.2699   6.2769   6.2805   6.4568   6.4670
  6.4700   6.4760   6.4812   6.4886   6.4970   6.4987   6.5713   6.5756
  6.5792   6.5803   6.5846   6.6115   6.6383   6.6592   6.7240   6.7561
  6.7711   6.8154   6.8623   6.8772   6.8928   6.8967   6.9000   6.9097
  6.9203   6.9302   6.9684   6.9767   6.9816   6.9966   7.0854   7.0863
  7.0953   7.0987   7.2432   7.2569   7.2703   7.2707   7.2731   7.2778
  7.2808   7.3004   7.3149   7.3338   7.3533   7.3792  22.6776  22.7130
 22.7415  22.7417  22.7672  22.7985  23.6124  23.6227  23.6437  23.6696
 32.9994  33.0487  44.0214  44.0413  44.0590  44.0648  44.1203  44.1450
 44.2132  44.3082
 --------------------------------------------------------------

          Ground-State Mulliken Net Atomic Charges

     Atom                 Charge (a.u.)
  ----------------------------------------
      1 Ca                    2.000000
      2 O                    -0.798856
      3 C                     0.417424
      4 O                    -0.623118
      5 C                    -0.133706
      6 H                     0.156518
      7 H                     0.176005
      8 N                    -0.582499
      9 C                    -0.151214
     10 H                     0.167080
     11 H                     0.150828
     12 C                    -0.115550
     13 H                     0.169354
     14 H                     0.148158
     15 C                    -0.120469
     16 H                     0.169995
     17 H                     0.147973
     18 N                    -0.584436
     19 C                    -0.149706
     20 H                     0.166891
     21 H                     0.150361
     22 C                    -0.130223
     23 H                     0.175838
     24 H                     0.156089
     25 C                     0.413954
     26 O                    -0.622477
     27 O                    -0.797798
     28 C                     0.434600
     29 O                    -0.615338
     30 O                    -0.797564
     31 C                     0.433809
     32 O                    -0.615284
     33 O                    -0.796642
  ----------------------------------------
  Sum of atomic charges =    -2.000000

 -----------------------------------------------------------------
                    Cartesian Multipole Moments
 -----------------------------------------------------------------
    Charge (ESU x 10^10)
                -9.6064
    Dipole Moment (Debye)
         X       7.6645      Y      -7.4787      Z       0.9268
       Tot      10.7487
    Quadrupole Moments (Debye-Ang)
        XX    -168.6833     XY     -40.5953     YY    -170.6390
        XZ       9.0233     YZ      -2.3242     ZZ    -223.1613
    Octopole Moments (Debye-Ang^2)
       XXX     -83.7270    XXY      91.7640    XYY     -90.7355
       YYY      85.3607    XXZ     -24.6170    XYZ      -5.4750
       YYZ      35.1606    XZZ    -134.3269    YZZ     118.3330
       ZZZ     -47.4976
    Hexadecapole Moments (Debye-Ang^3)
      XXXX   -2749.6136   XXXY    -740.0074   XXYY   -1106.4916
      XYYY    -730.3155   YYYY   -2832.9220   XXXZ      58.7285
      XXYZ      65.6592   XYYZ     107.2513   YYYZ       3.4191
      XXZZ    -849.1176   XYZZ    -106.3132   YYZZ    -901.4966
      XZZZ    -163.1226   YZZZ    -345.4223   ZZZZ   -3711.5704
 -----------------------------------------------------------------
Archival summary:
1\1\osmium\SP\ProcedureUnspecified\BasisUnspecified\a1821012(2-,1)\eric\ThuFeb2502:54:492021ThuFeb2502:54:492021\0\\#,ProcedureUnspecified,BasisUnspecified,\\-2,1\Ca\O,1,2.05739\C,2,1.27174,1,116.38\O,3,1.24033,2,124.717,1,170.363,0\C,3,1.53418,2,117.391,1,-7.45699,0\H,5,1.09208,3,105.984,2,95.8688,0\H,5,1.09401,3,109.206,2,-148.633,0\N,5,1.45717,3,111.92,2,-22.9477,0\C,8,1.4643,5,112.349,3,-77.8256,0\H,9,1.09273,8,109.632,5,8.03418,0\H,9,1.09303,8,111.163,5,-109.349,0\C,8,1.4663,5,115.137,3,151.328,0\H,12,1.09102,8,108.356,5,-34.3858,0\H,12,1.09582,8,111.664,5,83.3539,0\C,12,1.52289,8,110.626,5,-154.703,0\H,15,1.09105,12,109.721,8,-59.6524,0\H,15,1.09583,12,109.355,8,-177.025,0\N,15,1.46655,12,110.644,8,59.7116,0\C,18,1.45724,15,115.043,12,-155.283,0\H,19,1.09213,18,109.041,15,34.5669,0\H,19,1.09394,18,112.837,15,-84.8611,0\C,18,1.46461,15,112.671,12,74.1745,0\H,22,1.09276,18,109.588,15,140.408,0\H,22,1.09292,18,111.182,15,22.9292,0\C,9,1.52739,8,115.014,5,126.792,0\O,25,1.24233,9,117.332,8,167.785,0\O,25,1.26667,9,117.779,8,-13.9981,0\C,22,1.52767,18,114.921,15,-101.057,0\O,28,1.24219,22,117.417,18,166.859,0\O,28,1.26671,22,117.672,18,-15.067,0\C,19,1.53413,18,111.853,15,151.411,0\O,31,1.24039,19,117.873,18,158.111,0\O,31,1.27176,19,117.368,18,-23.8983,0\\\@

 Total job time:  5103.98s(wall), 17975.63s(cpu) 
 Thu Feb 25 02:54:49 2021

        *************************************************************
        *                                                           *
        *  Thank you very much for using Q-Chem.  Have a nice day.  *
        *                                                           *
        *************************************************************


