
    -----------------------------------------------------------------------
          Psi4: An Open-Source Ab Initio Electronic Structure Package
                               Psi4 1.3.2 release

                         Git: Rev {HEAD} ecbda83 


    R. M. Parrish, L. A. Burns, D. G. A. Smith, A. C. Simmonett,
    A. E. DePrince III, E. G. Hohenstein, U. Bozkaya, A. Yu. Sokolov,
    R. Di Remigio, R. M. Richard, J. F. Gonthier, A. M. James,
    H. R. McAlexander, A. Kumar, M. Saitow, X. Wang, B. P. Pritchard,
    P. Verma, H. F. Schaefer III, K. Patkowski, R. A. King, E. F. Valeev,
    F. A. Evangelista, J. M. Turney, T. D. Crawford, and C. D. Sherrill,
    J. Chem. Theory Comput. 13(7) pp 3185--3197 (2017).
    (doi: 10.1021/acs.jctc.7b00174)


                         Additional Contributions by
    P. Kraus, H. Kruse, M. H. Lechner, M. C. Schieber, R. A. Shaw,
    A. Alenaizan, R. Galvelis, Z. L. Glick, S. Lehtola, and J. P. Misiewicz

    -----------------------------------------------------------------------


    Psi4 started on: Saturday, 16 January 2021 06:48PM

    Process ID: 1794417
    Host:       osmium
    PSIDATADIR: /home/eric/.pyenv/versions/miniconda3-4.7.12/envs/cclib_berquist_37/share/psi4
    Memory:     500.0 MiB
    Threads:    6
    
  ==> Input File <==

--------------------------------------------------------------------------
molecule {
2 1
Mg        0.0568200754   -0.0340507487   -0.0241536722
--
-4 1
O        -0.0266333451   -0.0060214852    2.2942122857
C         1.0269754008    0.0129202493    2.9953916923
O         1.0573624107   -0.0977604490    4.2344439888
C         2.3596241929    0.2639608226    2.2856921716
H         3.1635561425   -0.2111629614    2.8569573893
H         2.5145038971    1.3433782314    2.3673182739
N         2.4176607442   -0.1187484848    0.8735315702
C         3.1674825911    0.8574762557    0.0910602416
H         3.4115669762    0.4189662405   -0.8797092364
H         4.1141373734    1.1370271339    0.5660796192
C         2.9173296471   -1.4862563181    0.6905601916
H         3.1891485562   -1.6127156332   -0.3580773736
H         3.8298079155   -1.6539823787    1.2772437380
C         1.8913877356   -2.5361434014    1.0829434647
H         1.6046453206   -2.3947792303    2.1256885698
H         2.3625700878   -3.5253335239    1.0164534456
N         0.6780693593   -2.4724222800    0.2604912448
C        -0.4722615912   -3.0916450357    0.9082307927
H        -0.4477093347   -2.8532230990    1.9745531057
H        -0.4633957757   -4.1838387038    0.8212005629
C         0.8878857548   -3.0171302831   -1.0810810247
H        -0.0606039110   -3.4111916099   -1.4560322841
H         1.5894218509   -3.8576305915   -1.0630492552
C         1.3341105049   -2.0166103716   -2.1497508729
O         1.9332069908   -2.4739861861   -3.1396755917
O         1.0142557700   -0.8013057071   -1.9967400321
C         2.3705987271    2.1291552057   -0.2211942199
O         3.0186263330    3.1575254362   -0.4842999709
O         1.1058168025    2.0461479272   -0.2403311654
C        -1.8170416944   -2.5600853818    0.3980975935
O        -2.8133043262   -3.2867204036    0.5591204716
O        -1.8429917341   -1.3986316291   -0.1093428981

units angstrom
no_reorient
symmetry c1
}

set {
    basis def2-tzvp
}

energy("sapt0-ct")
--------------------------------------------------------------------------

  //>>>>>>>>>>>>>>>>>>>>>>>>>>>>>>>>>>>//
  //              Dimer HF             //
  //<<<<<<<<<<<<<<<<<<<<<<<<<<<<<<<<<<<//


*** tstart() called on osmium
*** at Sat Jan 16 18:48:28 2021

   => Loading Basis Set <=

    Name: DEF2-TZVP
    Role: ORBITAL
    Keyword: BASIS
    atoms 1                                      entry MG         line   327 file /home/eric/.pyenv/versions/miniconda3-4.7.12/envs/cclib_berquist_37/share/psi4/basis/def2-tzvp.gbs 
    atoms 2, 4, 26-27, 29-30, 32-33              entry O          line   189 file /home/eric/.pyenv/versions/miniconda3-4.7.12/envs/cclib_berquist_37/share/psi4/basis/def2-tzvp.gbs 
    atoms 3, 5, 9, 12, 15, 19, 22, 25, 28, 31    entry C          line   123 file /home/eric/.pyenv/versions/miniconda3-4.7.12/envs/cclib_berquist_37/share/psi4/basis/def2-tzvp.gbs 
    atoms 6-7, 10-11, 13-14, 16-17, 20-21, 23-24 entry H          line    15 file /home/eric/.pyenv/versions/miniconda3-4.7.12/envs/cclib_berquist_37/share/psi4/basis/def2-tzvp.gbs 
    atoms 8, 18                                  entry N          line   156 file /home/eric/.pyenv/versions/miniconda3-4.7.12/envs/cclib_berquist_37/share/psi4/basis/def2-tzvp.gbs 


         ---------------------------------------------------------
                                   SCF
               by Justin Turney, Rob Parrish, Andy Simmonett
                          and Daniel G. A. Smith
                              RHF Reference
                        6 Threads,    500 MiB Core
         ---------------------------------------------------------

  ==> Geometry <==

    Molecular point group: c1
    Full point group: C1

    Geometry (in Angstrom), charge = -2, multiplicity = 1:

       Center              X                  Y                   Z               Mass       
    ------------   -----------------  -----------------  -----------------  -----------------
         MG          -0.868789628053     0.738782002315    -0.352611369377    23.985041697000
         O           -0.952243048553     0.766811265815     1.965754588523    15.994914619570
         C            0.101365697347     0.785753000315     2.666933995123    12.000000000000
         O            0.131752707247     0.675072302015     3.905986291623    15.994914619570
         C            1.434014489447     1.036793573615     1.957234474423    12.000000000000
         H            2.237946439047     0.561669789615     2.528499692123     1.007825032230
         H            1.588894193647     2.116210982415     2.038860576723     1.007825032230
         N            1.492051040747     0.654084266215     0.545073873023    14.003074004430
         C            2.241872887647     1.630309006715    -0.237397455577    12.000000000000
         H            2.485957272747     1.191798991515    -1.208166933577     1.007825032230
         H            3.188527669947     1.909859884915     0.237621922023     1.007825032230
         C            1.991719943647    -0.713423567085     0.362102494423    12.000000000000
         H            2.263538852747    -0.839882882185    -0.686535070777     1.007825032230
         H            2.904198212047    -0.881149627685     0.948786040823     1.007825032230
         C            0.965778032147    -1.763310650385     0.754485767523    12.000000000000
         H            0.679035617147    -1.621946479285     1.797230872623     1.007825032230
         H            1.436960384347    -2.752500772885     0.687995748423     1.007825032230
         N           -0.247540344153    -1.699589528985    -0.067966452377    14.003074004430
         C           -1.397871294653    -2.318812284685     0.579773095523    12.000000000000
         H           -1.373319038153    -2.080390347985     1.646095408523     1.007825032230
         H           -1.389005479153    -3.411005952785     0.492742865723     1.007825032230
         C           -0.037723948653    -2.244297532085    -1.409538721877    12.000000000000
         H           -0.986213614453    -2.638358858885    -1.784489981277     1.007825032230
         H            0.663812147447    -3.084797840485    -1.391506952377     1.007825032230
         C            0.408500801447    -1.243777620585    -2.478208570077    12.000000000000
         O            1.007597287347    -1.701153435085    -3.468133288877    15.994914619570
         O            0.088646066547    -0.028472956085    -2.325197729277    15.994914619570
         C            1.444989023647     2.901987956715    -0.549651917077    12.000000000000
         O            2.093016629547     3.930358187215    -0.812757668077    15.994914619570
         O            0.180207099047     2.818980678215    -0.568788862577    15.994914619570
         C           -2.742651397853    -1.787252630785     0.069639896323    12.000000000000
         O           -3.738914029653    -2.513887652585     0.230662774423    15.994914619570
         O           -2.768601437553    -0.625798878085    -0.437800595277    15.994914619570

  Running in c1 symmetry.

  Rotational constants: A =      0.01270  B =      0.00919  C =      0.00722 [cm^-1]
  Rotational constants: A =    380.66027  B =    275.60413  C =    216.47472 [MHz]
  Nuclear repulsion = 1980.852393177278600

  Charge       = -2
  Multiplicity = 1
  Electrons    = 164
  Nalpha       = 82
  Nbeta        = 82

  ==> Algorithm <==

  SCF Algorithm Type is DF.
  DIIS enabled.
  MOM disabled.
  Fractional occupation disabled.
  Guess Type is SAD.
  Energy threshold   = 1.00e-08
  Density threshold  = 1.00e-08
  Integral threshold = 0.00e+00

  ==> Primary Basis <==

  Basis Set: DEF2-TZVP
    Blend: DEF2-TZVP
    Number of shells: 280
    Number of basis function: 724
    Number of Cartesian functions: 827
    Spherical Harmonics?: true
    Max angular momentum: 3

   => Loading Basis Set <=

    Name: (DEF2-TZVP AUX)
    Role: JKFIT
    Keyword: DF_BASIS_SCF
    atoms 1                                      entry MG         line   581 file /home/eric/.pyenv/versions/miniconda3-4.7.12/envs/cclib_berquist_37/share/psi4/basis/def2-tzvp-jkfit.gbs 
    atoms 2, 4, 26-27, 29-30, 32-33              entry O          line   323 file /home/eric/.pyenv/versions/miniconda3-4.7.12/envs/cclib_berquist_37/share/psi4/basis/def2-tzvp-jkfit.gbs 
    atoms 3, 5, 9, 12, 15, 19, 22, 25, 28, 31    entry C          line   203 file /home/eric/.pyenv/versions/miniconda3-4.7.12/envs/cclib_berquist_37/share/psi4/basis/def2-tzvp-jkfit.gbs 
    atoms 6-7, 10-11, 13-14, 16-17, 20-21, 23-24 entry H          line    23 file /home/eric/.pyenv/versions/miniconda3-4.7.12/envs/cclib_berquist_37/share/psi4/basis/def2-tzvp-jkfit.gbs 
    atoms 8, 18                                  entry N          line   263 file /home/eric/.pyenv/versions/miniconda3-4.7.12/envs/cclib_berquist_37/share/psi4/basis/def2-tzvp-jkfit.gbs 

  ==> Pre-Iterations <==

   -------------------------------------------------------
    Irrep   Nso     Nmo     Nalpha   Nbeta   Ndocc  Nsocc
   -------------------------------------------------------
     A        724     724       0       0       0       0
   -------------------------------------------------------
    Total     724     724      82      82      82       0
   -------------------------------------------------------

  ==> Integral Setup <==

  ==> DiskDFJK: Density-Fitted J/K Matrices <==

    J tasked:                  Yes
    K tasked:                  Yes
    wK tasked:                  No
    OpenMP threads:              6
    Integrals threads:           6
    Memory [MiB]:              375
    Algorithm:                Disk
    Integral Cache:           SAVE
    Schwarz Cutoff:          1E-12
    Fitting Condition:       1E-10

   => Auxiliary Basis Set <=

  Basis Set: (DEF2-TZVP AUX)
    Blend: DEF2-TZVP-JKFIT
    Number of shells: 606
    Number of basis function: 1848
    Number of Cartesian functions: 2197
    Spherical Harmonics?: true
    Max angular momentum: 4

  Minimum eigenvalue in the overlap matrix is 7.4659497213E-05.
  Using Symmetric Orthogonalization.

  SCF Guess: Superposition of Atomic Densities via on-the-fly atomic UHF.

  ==> Iterations <==

                           Total Energy        Delta E     RMS |[F,P]|

   @DF-RHF iter SAD: -1291.96589790670123   -1.29197e+03   0.00000e+00 
   @DF-RHF iter   1: -1292.99431931835602   -1.02842e+00   1.79210e-03 DIIS
   @DF-RHF iter   2: -1293.50292426131477   -5.08605e-01   1.15568e-03 DIIS
   @DF-RHF iter   3: -1293.72943505340550   -2.26511e-01   1.43419e-04 DIIS
   @DF-RHF iter   4: -1293.73705228453173   -7.61723e-03   4.97486e-05 DIIS
   @DF-RHF iter   5: -1293.73793059831678   -8.78314e-04   1.11100e-05 DIIS
   @DF-RHF iter   6: -1293.73798716251281   -5.65642e-05   4.37095e-06 DIIS
   @DF-RHF iter   7: -1293.73799492180478   -7.75929e-06   1.47875e-06 DIIS
   @DF-RHF iter   8: -1293.73799625737297   -1.33557e-06   5.09806e-07 DIIS
   @DF-RHF iter   9: -1293.73799648082354   -2.23451e-07   1.98411e-07 DIIS
   @DF-RHF iter  10: -1293.73799651295735   -3.21338e-08   1.10341e-07 DIIS
   @DF-RHF iter  11: -1293.73799651855461   -5.59726e-09   2.47938e-08 DIIS
   @DF-RHF iter  12: -1293.73799651891341   -3.58796e-10   9.30852e-09 DIIS
  Energy and wave function converged.


  ==> Post-Iterations <==

    Orbital Energies [Eh]
    ---------------------

    Doubly Occupied:                                                      

       1A    -48.827805     2A    -20.281843     3A    -20.280951  
       4A    -20.280925     5A    -20.280606     6A    -20.266440  
       7A    -20.265743     8A    -20.262931     9A    -20.262455  
      10A    -15.369857    11A    -15.369567    12A    -11.113570  
      13A    -11.112966    14A    -11.111395    15A    -11.111078  
      16A    -11.069242    17A    -11.068568    18A    -11.050563  
      19A    -11.050434    20A    -11.046619    21A    -11.046234  
      22A     -3.554718    23A     -2.078359    24A     -2.076179  
      25A     -2.075509    26A     -1.158378    27A     -1.157051  
      28A     -1.153459    29A     -1.152953    30A     -1.059296  
      31A     -1.050278    32A     -1.047696    33A     -1.047659  
      34A     -1.044953    35A     -1.029831    36A     -0.835443  
      37A     -0.782202    38A     -0.780073    39A     -0.729416  
      40A     -0.668318    41A     -0.609427    42A     -0.526116  
      43A     -0.514240    44A     -0.511698    45A     -0.505693  
      46A     -0.484949    47A     -0.466724    48A     -0.453857  
      49A     -0.441057    50A     -0.437056    51A     -0.427341  
      52A     -0.404155    53A     -0.401461    54A     -0.398956  
      55A     -0.386948    56A     -0.381475    57A     -0.381377  
      58A     -0.369347    59A     -0.364151    60A     -0.360537  
      61A     -0.351668    62A     -0.347840    63A     -0.341115  
      64A     -0.314924    65A     -0.302664    66A     -0.301669  
      67A     -0.298584    68A     -0.282092    69A     -0.220616  
      70A     -0.211924    71A     -0.204195    72A     -0.203713  
      73A     -0.198379    74A     -0.196883    75A     -0.183795  
      76A     -0.182692    77A     -0.180836    78A     -0.179590  
      79A     -0.177672    80A     -0.177407    81A     -0.170516  
      82A     -0.165379  

    Virtual:                                                              

      83A      0.286188    84A      0.316646    85A      0.338154  
      86A      0.359732    87A      0.362376    88A      0.371426  
      89A      0.376397    90A      0.389831    91A      0.396469  
      92A      0.402434    93A      0.405499    94A      0.406688  
      95A      0.427301    96A      0.428998    97A      0.435827  
      98A      0.439187    99A      0.455706   100A      0.461086  
     101A      0.464128   102A      0.465782   103A      0.470681  
     104A      0.474645   105A      0.488352   106A      0.501928  
     107A      0.506768   108A      0.512680   109A      0.522220  
     110A      0.524743   111A      0.536811   112A      0.542037  
     113A      0.545424   114A      0.560905   115A      0.562492  
     116A      0.583233   117A      0.593498   118A      0.598054  
     119A      0.600878   120A      0.605166   121A      0.617806  
     122A      0.630261   123A      0.631289   124A      0.633710  
     125A      0.640632   126A      0.649946   127A      0.658132  
     128A      0.662930   129A      0.665567   130A      0.672219  
     131A      0.677745   132A      0.682239   133A      0.688780  
     134A      0.694312   135A      0.708369   136A      0.710745  
     137A      0.717582   138A      0.726320   139A      0.730290  
     140A      0.733976   141A      0.740234   142A      0.743691  
     143A      0.743774   144A      0.747268   145A      0.759696  
     146A      0.763940   147A      0.773290   148A      0.777814  
     149A      0.780718   150A      0.787698   151A      0.794876  
     152A      0.801171   153A      0.802641   154A      0.810801  
     155A      0.815778   156A      0.828317   157A      0.829550  
     158A      0.831368   159A      0.832962   160A      0.842542  
     161A      0.856605   162A      0.857109   163A      0.860423  
     164A      0.870961   165A      0.871908   166A      0.877823  
     167A      0.888491   168A      0.890206   169A      0.896918  
     170A      0.899764   171A      0.916439   172A      0.920725  
     173A      0.921814   174A      0.927807   175A      0.951134  
     176A      0.957558   177A      0.968788   178A      0.975933  
     179A      0.981301   180A      0.986882   181A      0.987883  
     182A      0.992356   183A      0.995233   184A      1.006982  
     185A      1.010500   186A      1.013240   187A      1.019311  
     188A      1.035668   189A      1.048616   190A      1.054878  
     191A      1.058538   192A      1.064791   193A      1.069827  
     194A      1.077854   195A      1.086975   196A      1.092206  
     197A      1.094399   198A      1.096596   199A      1.102337  
     200A      1.115063   201A      1.117828   202A      1.123916  
     203A      1.144664   204A      1.146885   205A      1.155736  
     206A      1.156463   207A      1.168210   208A      1.178163  
     209A      1.198151   210A      1.203751   211A      1.210265  
     212A      1.213287   213A      1.229802   214A      1.233999  
     215A      1.248562   216A      1.248921   217A      1.252493  
     218A      1.264121   219A      1.268131   220A      1.279130  
     221A      1.295876   222A      1.296412   223A      1.311462  
     224A      1.317111   225A      1.336498   226A      1.351475  
     227A      1.356112   228A      1.358628   229A      1.362898  
     230A      1.373927   231A      1.383277   232A      1.386190  
     233A      1.388002   234A      1.402089   235A      1.423527  
     236A      1.430523   237A      1.437182   238A      1.444924  
     239A      1.453483   240A      1.458125   241A      1.467469  
     242A      1.487677   243A      1.493967   244A      1.498837  
     245A      1.500561   246A      1.518283   247A      1.540044  
     248A      1.542324   249A      1.552115   250A      1.556271  
     251A      1.566775   252A      1.568481   253A      1.575895  
     254A      1.602192   255A      1.614951   256A      1.615329  
     257A      1.629949   258A      1.639425   259A      1.648851  
     260A      1.676399   261A      1.680994   262A      1.695185  
     263A      1.698894   264A      1.712333   265A      1.734947  
     266A      1.745014   267A      1.765991   268A      1.769766  
     269A      1.821401   270A      1.828379   271A      1.833560  
     272A      1.850520   273A      1.858614   274A      1.872473  
     275A      1.874658   276A      1.888198   277A      1.896137  
     278A      1.933435   279A      1.939576   280A      1.943009  
     281A      1.953679   282A      1.963015   283A      1.967708  
     284A      1.980634   285A      1.993606   286A      2.011581  
     287A      2.012389   288A      2.030850   289A      2.036980  
     290A      2.040375   291A      2.049594   292A      2.056849  
     293A      2.065105   294A      2.068927   295A      2.070510  
     296A      2.076690   297A      2.083771   298A      2.087952  
     299A      2.108515   300A      2.122434   301A      2.123523  
     302A      2.127484   303A      2.133769   304A      2.138840  
     305A      2.147015   306A      2.163019   307A      2.163656  
     308A      2.178978   309A      2.194885   310A      2.206382  
     311A      2.217639   312A      2.227876   313A      2.240874  
     314A      2.244370   315A      2.250772   316A      2.276787  
     317A      2.279281   318A      2.299882   319A      2.316333  
     320A      2.332959   321A      2.343942   322A      2.351929  
     323A      2.359038   324A      2.360645   325A      2.380570  
     326A      2.385335   327A      2.392190   328A      2.406494  
     329A      2.419585   330A      2.425890   331A      2.436114  
     332A      2.442867   333A      2.453822   334A      2.462640  
     335A      2.465082   336A      2.489266   337A      2.493481  
     338A      2.497284   339A      2.514005   340A      2.521218  
     341A      2.523734   342A      2.544433   343A      2.547953  
     344A      2.559700   345A      2.566501   346A      2.577105  
     347A      2.585221   348A      2.604647   349A      2.606227  
     350A      2.607523   351A      2.623792   352A      2.626302  
     353A      2.644724   354A      2.648665   355A      2.659430  
     356A      2.679471   357A      2.689732   358A      2.695885  
     359A      2.705794   360A      2.720008   361A      2.724563  
     362A      2.741656   363A      2.753565   364A      2.770363  
     365A      2.776254   366A      2.784951   367A      2.787783  
     368A      2.804850   369A      2.823592   370A      2.826016  
     371A      2.837843   372A      2.846806   373A      2.859284  
     374A      2.871465   375A      2.884081   376A      2.884719  
     377A      2.891820   378A      2.904461   379A      2.907877  
     380A      2.920825   381A      2.926240   382A      2.951529  
     383A      2.958022   384A      2.963657   385A      2.979235  
     386A      2.987799   387A      3.012900   388A      3.018220  
     389A      3.020913   390A      3.036231   391A      3.052979  
     392A      3.061464   393A      3.067053   394A      3.085514  
     395A      3.095276   396A      3.101061   397A      3.117298  
     398A      3.121695   399A      3.130390   400A      3.145052  
     401A      3.147905   402A      3.163418   403A      3.182571  
     404A      3.186300   405A      3.189564   406A      3.208596  
     407A      3.214153   408A      3.233526   409A      3.234771  
     410A      3.252922   411A      3.257326   412A      3.267593  
     413A      3.276586   414A      3.291245   415A      3.299061  
     416A      3.301434   417A      3.310258   418A      3.326525  
     419A      3.349522   420A      3.354005   421A      3.402693  
     422A      3.418144   423A      3.418384   424A      3.435163  
     425A      3.441776   426A      3.464114   427A      3.471480  
     428A      3.475831   429A      3.486383   430A      3.489438  
     431A      3.503795   432A      3.511773   433A      3.523070  
     434A      3.535722   435A      3.554173   436A      3.556653  
     437A      3.567144   438A      3.569562   439A      3.574441  
     440A      3.582459   441A      3.603756   442A      3.604383  
     443A      3.606794   444A      3.619122   445A      3.629565  
     446A      3.633290   447A      3.642850   448A      3.645204  
     449A      3.652150   450A      3.654242   451A      3.664284  
     452A      3.670468   453A      3.681799   454A      3.688869  
     455A      3.692945   456A      3.701719   457A      3.724586  
     458A      3.731207   459A      3.733489   460A      3.748344  
     461A      3.752050   462A      3.755035   463A      3.763690  
     464A      3.772266   465A      3.781246   466A      3.802085  
     467A      3.813306   468A      3.826889   469A      3.829474  
     470A      3.836832   471A      3.859159   472A      3.865255  
     473A      3.865971   474A      3.873079   475A      3.878853  
     476A      3.893476   477A      3.898412   478A      3.912315  
     479A      3.916562   480A      3.930920   481A      3.931303  
     482A      3.932603   483A      3.948011   484A      3.949787  
     485A      3.957702   486A      3.960392   487A      3.972159  
     488A      3.989270   489A      3.990687   490A      4.000494  
     491A      4.007683   492A      4.016626   493A      4.020578  
     494A      4.039714   495A      4.054561   496A      4.056482  
     497A      4.075398   498A      4.085993   499A      4.088066  
     500A      4.103751   501A      4.104323   502A      4.115137  
     503A      4.124444   504A      4.125855   505A      4.127327  
     506A      4.138793   507A      4.140096   508A      4.150144  
     509A      4.152369   510A      4.172030   511A      4.183054  
     512A      4.200568   513A      4.205253   514A      4.212266  
     515A      4.215947   516A      4.249423   517A      4.252080  
     518A      4.258050   519A      4.278795   520A      4.296539  
     521A      4.302063   522A      4.328324   523A      4.336810  
     524A      4.360999   525A      4.366601   526A      4.379850  
     527A      4.403211   528A      4.431705   529A      4.456841  
     530A      4.479119   531A      4.484725   532A      4.488167  
     533A      4.502127   534A      4.504324   535A      4.517779  
     536A      4.522387   537A      4.555727   538A      4.570138  
     539A      4.572462   540A      4.586957   541A      4.608694  
     542A      4.625906   543A      4.628845   544A      4.632710  
     545A      4.648397   546A      4.691936   547A      4.703756  
     548A      4.718300   549A      4.744231   550A      4.813010  
     551A      4.851780   552A      4.873484   553A      4.893795  
     554A      4.918638   555A      4.975951   556A      5.008295  
     557A      5.014510   558A      5.018838   559A      5.027501  
     560A      5.055116   561A      5.076754   562A      5.079154  
     563A      5.089237   564A      5.105980   565A      5.124664  
     566A      5.158757   567A      5.183609   568A      5.206225  
     569A      5.246387   570A      5.248072   571A      5.257473  
     572A      5.279590   573A      5.315086   574A      5.369881  
     575A      5.379135   576A      5.385279   577A      5.394990  
     578A      5.435861   579A      5.486536   580A      5.535556  
     581A      5.701462   582A      5.725264   583A      5.744715  
     584A      5.749786   585A      5.836048   586A      5.854442  
     587A      5.863720   588A      5.868697   589A      5.874757  
     590A      5.875242   591A      5.880922   592A      5.885096  
     593A      5.890649   594A      5.896172   595A      5.898278  
     596A      5.902612   597A      5.903325   598A      5.910417  
     599A      5.915989   600A      5.918838   601A      5.936651  
     602A      5.937443   603A      5.942423   604A      5.984358  
     605A      6.003003   606A      6.012450   607A      6.029209  
     608A      6.046627   609A      6.058433   610A      6.065953  
     611A      6.069355   612A      6.092769   613A      6.095588  
     614A      6.112896   615A      6.140435   616A      6.181905  
     617A      6.229139   618A      6.252306   619A      6.255623  
     620A      6.257011   621A      6.269656   622A      6.274547  
     623A      6.276052   624A      6.278161   625A      6.336218  
     626A      6.352194   627A      6.356383   628A      6.364550  
     629A      6.369956   630A      6.384995   631A      6.423750  
     632A      6.431566   633A      6.490784   634A      6.547453  
     635A      6.548066   636A      6.576196   637A      6.578597  
     638A      6.587333   639A      6.605998   640A      6.784618  
     641A      6.788653   642A      6.795404   643A      6.803268  
     644A      6.838090   645A      6.839699   646A      6.851734  
     647A      6.854076   648A      6.896963   649A      6.900612  
     650A      6.906975   651A      6.908939   652A      7.117446  
     653A      7.128247   654A      7.130834   655A      7.133854  
     656A      7.138196   657A      7.142592   658A      7.143109  
     659A      7.144735   660A      7.194802   661A      7.217805  
     662A      7.221561   663A      7.237569   664A      7.240111  
     665A      7.251540   666A      7.259703   667A      7.262382  
     668A      7.275110   669A      7.293558   670A      7.298054  
     671A      7.318909   672A      7.332975   673A      7.355428  
     674A      7.417217   675A      7.421023   676A      7.497454  
     677A      7.543388   678A      7.551529   679A      7.553667  
     680A      7.564606   681A      7.566251   682A      7.579614  
     683A      7.584761   684A      7.587048   685A      7.640676  
     686A      7.641403   687A      7.648279   688A      7.653443  
     689A      7.758055   690A      7.764024   691A      7.772115  
     692A      7.774008   693A      7.919021   694A      7.926978  
     695A      7.934825   696A      7.935298   697A      7.936325  
     698A      7.937760   699A      7.941589   700A      7.944030  
     701A      7.970987   702A      7.974245   703A      7.975209  
     704A      7.985992   705A     23.846863   706A     23.886049  
     707A     23.898050   708A     23.939486   709A     23.959733  
     710A     23.963200   711A     24.826008   712A     24.849551  
     713A     24.850110   714A     24.862115   715A     34.388477  
     716A     34.400390   717A     45.714710   718A     45.747065  
     719A     45.765878   720A     45.767132   721A     45.781231  
     722A     45.798950   723A     45.813115   724A     45.827335  

    Final Occupation by Irrep:
              A 
    DOCC [    82 ]

  @DF-RHF Final Energy: -1293.73799651891341

   => Energetics <=

    Nuclear Repulsion Energy =           1980.8523931772786000
    One-Electron Energy =               -5767.1162383605569630
    Two-Electron Energy =                2492.5258486643647302
    Total Energy =                      -1293.7379965189134055

Computation Completed


Properties will be evaluated at   0.000000,   0.000000,   0.000000 [a0]

Properties computed using the SCF density matrix

  Nuclear Dipole Moment: [e a0]
     X:    12.8087      Y:   -10.7800      Z:     4.9617

  Electronic Dipole Moment: [e a0]
     X:   -10.3919      Y:     8.7670      Z:    -4.0693

  Dipole Moment: [e a0]
     X:     2.4168      Y:    -2.0131      Z:     0.8924     Total:     3.2695

  Dipole Moment: [D]
     X:     6.1429      Y:    -5.1167      Z:     2.2682     Total:     8.3102


*** tstop() called on osmium at Sat Jan 16 18:51:11 2021
Module time:
	user time   =     909.99 seconds =      15.17 minutes
	system time =      29.11 seconds =       0.49 minutes
	total time  =        163 seconds =       2.72 minutes
Total time:
	user time   =     909.99 seconds =      15.17 minutes
	system time =      29.11 seconds =       0.49 minutes
	total time  =        163 seconds =       2.72 minutes

  //>>>>>>>>>>>>>>>>>>>>>>>>>>>>>>>>>>>//
  //     Monomer A HF (Dimer Basis)    //
  //<<<<<<<<<<<<<<<<<<<<<<<<<<<<<<<<<<<//


*** tstart() called on osmium
*** at Sat Jan 16 18:51:11 2021

   => Loading Basis Set <=

    Name: DEF2-TZVP
    Role: ORBITAL
    Keyword: BASIS
    atoms 1                                      entry MG         line   327 file /home/eric/.pyenv/versions/miniconda3-4.7.12/envs/cclib_berquist_37/share/psi4/basis/def2-tzvp.gbs 
    atoms 2, 4, 26-27, 29-30, 32-33              entry O          line   189 file /home/eric/.pyenv/versions/miniconda3-4.7.12/envs/cclib_berquist_37/share/psi4/basis/def2-tzvp.gbs 
    atoms 3, 5, 9, 12, 15, 19, 22, 25, 28, 31    entry C          line   123 file /home/eric/.pyenv/versions/miniconda3-4.7.12/envs/cclib_berquist_37/share/psi4/basis/def2-tzvp.gbs 
    atoms 6-7, 10-11, 13-14, 16-17, 20-21, 23-24 entry H          line    15 file /home/eric/.pyenv/versions/miniconda3-4.7.12/envs/cclib_berquist_37/share/psi4/basis/def2-tzvp.gbs 
    atoms 8, 18                                  entry N          line   156 file /home/eric/.pyenv/versions/miniconda3-4.7.12/envs/cclib_berquist_37/share/psi4/basis/def2-tzvp.gbs 


         ---------------------------------------------------------
                                   SCF
               by Justin Turney, Rob Parrish, Andy Simmonett
                          and Daniel G. A. Smith
                              RHF Reference
                        6 Threads,    500 MiB Core
         ---------------------------------------------------------

  ==> Geometry <==

    Molecular point group: c1
    Full point group: C1

    Geometry (in Angstrom), charge = 2, multiplicity = 1:

       Center              X                  Y                   Z               Mass       
    ------------   -----------------  -----------------  -----------------  -----------------
         MG          -0.868789628053     0.738782002315    -0.352611369377    23.985041697000
      Gh(O)          -0.952243048553     0.766811265815     1.965754588523    15.994914619570
      Gh(C)           0.101365697347     0.785753000315     2.666933995123    12.000000000000
      Gh(O)           0.131752707247     0.675072302015     3.905986291623    15.994914619570
      Gh(C)           1.434014489447     1.036793573615     1.957234474423    12.000000000000
      Gh(H)           2.237946439047     0.561669789615     2.528499692123     1.007825032230
      Gh(H)           1.588894193647     2.116210982415     2.038860576723     1.007825032230
      Gh(N)           1.492051040747     0.654084266215     0.545073873023    14.003074004430
      Gh(C)           2.241872887647     1.630309006715    -0.237397455577    12.000000000000
      Gh(H)           2.485957272747     1.191798991515    -1.208166933577     1.007825032230
      Gh(H)           3.188527669947     1.909859884915     0.237621922023     1.007825032230
      Gh(C)           1.991719943647    -0.713423567085     0.362102494423    12.000000000000
      Gh(H)           2.263538852747    -0.839882882185    -0.686535070777     1.007825032230
      Gh(H)           2.904198212047    -0.881149627685     0.948786040823     1.007825032230
      Gh(C)           0.965778032147    -1.763310650385     0.754485767523    12.000000000000
      Gh(H)           0.679035617147    -1.621946479285     1.797230872623     1.007825032230
      Gh(H)           1.436960384347    -2.752500772885     0.687995748423     1.007825032230
      Gh(N)          -0.247540344153    -1.699589528985    -0.067966452377    14.003074004430
      Gh(C)          -1.397871294653    -2.318812284685     0.579773095523    12.000000000000
      Gh(H)          -1.373319038153    -2.080390347985     1.646095408523     1.007825032230
      Gh(H)          -1.389005479153    -3.411005952785     0.492742865723     1.007825032230
      Gh(C)          -0.037723948653    -2.244297532085    -1.409538721877    12.000000000000
      Gh(H)          -0.986213614453    -2.638358858885    -1.784489981277     1.007825032230
      Gh(H)           0.663812147447    -3.084797840485    -1.391506952377     1.007825032230
      Gh(C)           0.408500801447    -1.243777620585    -2.478208570077    12.000000000000
      Gh(O)           1.007597287347    -1.701153435085    -3.468133288877    15.994914619570
      Gh(O)           0.088646066547    -0.028472956085    -2.325197729277    15.994914619570
      Gh(C)           1.444989023647     2.901987956715    -0.549651917077    12.000000000000
      Gh(O)           2.093016629547     3.930358187215    -0.812757668077    15.994914619570
      Gh(O)           0.180207099047     2.818980678215    -0.568788862577    15.994914619570
      Gh(C)          -2.742651397853    -1.787252630785     0.069639896323    12.000000000000
      Gh(O)          -3.738914029653    -2.513887652585     0.230662774423    15.994914619570
      Gh(O)          -2.768601437553    -0.625798878085    -0.437800595277    15.994914619570

  Running in c1 symmetry.

  Rotational constants: A =      0.01270  B =      0.00919  C =      0.00722 [cm^-1]
  Rotational constants: A =    380.66027  B =    275.60413  C =    216.47472 [MHz]
  Nuclear repulsion =    0.000000000000000

  Charge       = 2
  Multiplicity = 1
  Electrons    = 10
  Nalpha       = 5
  Nbeta        = 5

  ==> Algorithm <==

  SCF Algorithm Type is DF.
  DIIS enabled.
  MOM disabled.
  Fractional occupation disabled.
  Guess Type is SAD.
  Energy threshold   = 1.00e-08
  Density threshold  = 1.00e-08
  Integral threshold = 0.00e+00

  ==> Primary Basis <==

  Basis Set: DEF2-TZVP
    Blend: DEF2-TZVP
    Number of shells: 280
    Number of basis function: 724
    Number of Cartesian functions: 827
    Spherical Harmonics?: true
    Max angular momentum: 3

   => Loading Basis Set <=

    Name: (DEF2-TZVP AUX)
    Role: JKFIT
    Keyword: DF_BASIS_SCF
    atoms 1                                      entry MG         line   581 file /home/eric/.pyenv/versions/miniconda3-4.7.12/envs/cclib_berquist_37/share/psi4/basis/def2-tzvp-jkfit.gbs 
    atoms 2, 4, 26-27, 29-30, 32-33              entry O          line   323 file /home/eric/.pyenv/versions/miniconda3-4.7.12/envs/cclib_berquist_37/share/psi4/basis/def2-tzvp-jkfit.gbs 
    atoms 3, 5, 9, 12, 15, 19, 22, 25, 28, 31    entry C          line   203 file /home/eric/.pyenv/versions/miniconda3-4.7.12/envs/cclib_berquist_37/share/psi4/basis/def2-tzvp-jkfit.gbs 
    atoms 6-7, 10-11, 13-14, 16-17, 20-21, 23-24 entry H          line    23 file /home/eric/.pyenv/versions/miniconda3-4.7.12/envs/cclib_berquist_37/share/psi4/basis/def2-tzvp-jkfit.gbs 
    atoms 8, 18                                  entry N          line   263 file /home/eric/.pyenv/versions/miniconda3-4.7.12/envs/cclib_berquist_37/share/psi4/basis/def2-tzvp-jkfit.gbs 

  ==> Pre-Iterations <==

   -------------------------------------------------------
    Irrep   Nso     Nmo     Nalpha   Nbeta   Ndocc  Nsocc
   -------------------------------------------------------
     A        724     724       0       0       0       0
   -------------------------------------------------------
    Total     724     724       5       5       5       0
   -------------------------------------------------------

  ==> Integral Setup <==

  ==> DiskDFJK: Density-Fitted J/K Matrices <==

    J tasked:                  Yes
    K tasked:                  Yes
    wK tasked:                  No
    OpenMP threads:              6
    Integrals threads:           6
    Memory [MiB]:              375
    Algorithm:                Disk
    Integral Cache:           LOAD
    Schwarz Cutoff:          1E-12
    Fitting Condition:       1E-10

   => Auxiliary Basis Set <=

  Basis Set: (DEF2-TZVP AUX)
    Blend: DEF2-TZVP-JKFIT
    Number of shells: 606
    Number of basis function: 1848
    Number of Cartesian functions: 2197
    Spherical Harmonics?: true
    Max angular momentum: 4

  Minimum eigenvalue in the overlap matrix is 7.4659497213E-05.
  Using Symmetric Orthogonalization.

  SCF Guess: Superposition of Atomic Densities via on-the-fly atomic UHF.

  ==> Iterations <==

                           Total Energy        Delta E     RMS |[F,P]|

   @DF-RHF iter SAD:  -199.23023906020268   -1.99230e+02   0.00000e+00 
   @DF-RHF iter   1:  -198.82175253039006    4.08487e-01   1.33062e-04 DIIS
   @DF-RHF iter   2:  -198.82313595537153   -1.38342e-03   3.23525e-05 DIIS
   @DF-RHF iter   3:  -198.82322054931888   -8.45939e-05   1.44676e-06 DIIS
   @DF-RHF iter   4:  -198.82322080401215   -2.54693e-07   5.65999e-08 DIIS
   @DF-RHF iter   5:  -198.82322080425675   -2.44597e-10   2.60182e-09 DIIS
  Energy and wave function converged.


  ==> Post-Iterations <==

    Orbital Energies [Eh]
    ---------------------

    Doubly Occupied:                                                      

       1A    -49.767631     2A     -4.483213     3A     -3.006105  
       4A     -3.006103     5A     -3.006084  

    Virtual:                                                              

       6A     -0.540346     7A     -0.383354     8A     -0.383208  
       9A     -0.383154    10A     -0.228511    11A     -0.222238  
      12A     -0.221248    13A     -0.220691    14A     -0.220520  
      15A     -0.220092    16A     -0.163697    17A     -0.161761  
      18A     -0.154028    19A     -0.104794    20A     -0.103874  
      21A     -0.100403    22A     -0.093037    23A     -0.091806  
      24A     -0.088390    25A     -0.084090    26A     -0.072109  
      27A     -0.055299    28A     -0.043475    29A     -0.032152  
      30A     -0.024004    31A     -0.023561    32A     -0.004782  
      33A     -0.002179    34A      0.003098    35A      0.007460  
      36A      0.010080    37A      0.014780    38A      0.020084  
      39A      0.022109    40A      0.033951    41A      0.041605  
      42A      0.057255    43A      0.058330    44A      0.068876  
      45A      0.078563    46A      0.086067    47A      0.088259  
      48A      0.094804    49A      0.107376    50A      0.109951  
      51A      0.115442    52A      0.118719    53A      0.123676  
      54A      0.127464    55A      0.145468    56A      0.151541  
      57A      0.151937    58A      0.161929    59A      0.164487  
      60A      0.174641    61A      0.175317    62A      0.181533  
      63A      0.190674    64A      0.197241    65A      0.202809  
      66A      0.211970    67A      0.214471    68A      0.228698  
      69A      0.235645    70A      0.237869    71A      0.239948  
      72A      0.244405    73A      0.256076    74A      0.257157  
      75A      0.265867    76A      0.271223    77A      0.275131  
      78A      0.285161    79A      0.290378    80A      0.296634  
      81A      0.299191    82A      0.301516    83A      0.312298  
      84A      0.312873    85A      0.338646    86A      0.339357  
      87A      0.348258    88A      0.356626    89A      0.362797  
      90A      0.367720    91A      0.373352    92A      0.377390  
      93A      0.388068    94A      0.389609    95A      0.402827  
      96A      0.403765    97A      0.407513    98A      0.418576  
      99A      0.424647   100A      0.425949   101A      0.442222  
     102A      0.451780   103A      0.457546   104A      0.460668  
     105A      0.461196   106A      0.468546   107A      0.483387  
     108A      0.491117   109A      0.495789   110A      0.498862  
     111A      0.514841   112A      0.532885   113A      0.535030  
     114A      0.541990   115A      0.544661   116A      0.550311  
     117A      0.557015   118A      0.571923   119A      0.580161  
     120A      0.601936   121A      0.605043   122A      0.625689  
     123A      0.629206   124A      0.640923   125A      0.647663  
     126A      0.666065   127A      0.679012   128A      0.684218  
     129A      0.702297   130A      0.712829   131A      0.724745  
     132A      0.747211   133A      0.749925   134A      0.765202  
     135A      0.777113   136A      0.778777   137A      0.780435  
     138A      0.788649   139A      0.789822   140A      0.805552  
     141A      0.817698   142A      0.830232   143A      0.838107  
     144A      0.839647   145A      0.845057   146A      0.856069  
     147A      0.867979   148A      0.872138   149A      0.882962  
     150A      0.888651   151A      0.917389   152A      0.926778  
     153A      0.930916   154A      0.951051   155A      0.963811  
     156A      0.972350   157A      0.990285   158A      0.991217  
     159A      1.007805   160A      1.014057   161A      1.018004  
     162A      1.024756   163A      1.029214   164A      1.038048  
     165A      1.044588   166A      1.046758   167A      1.057978  
     168A      1.067632   169A      1.073202   170A      1.079767  
     171A      1.080170   172A      1.089960   173A      1.102190  
     174A      1.104796   175A      1.111299   176A      1.117536  
     177A      1.131429   178A      1.137668   179A      1.144279  
     180A      1.149638   181A      1.151979   182A      1.164019  
     183A      1.175143   184A      1.187294   185A      1.197348  
     186A      1.210796   187A      1.220042   188A      1.231253  
     189A      1.238319   190A      1.247412   191A      1.253806  
     192A      1.260648   193A      1.289864   194A      1.292111  
     195A      1.297275   196A      1.309365   197A      1.316465  
     198A      1.329996   199A      1.338592   200A      1.354985  
     201A      1.356698   202A      1.383888   203A      1.392942  
     204A      1.394737   205A      1.406434   206A      1.407964  
     207A      1.414964   208A      1.426546   209A      1.434884  
     210A      1.450161   211A      1.463835   212A      1.464931  
     213A      1.479139   214A      1.489422   215A      1.495695  
     216A      1.498674   217A      1.533284   218A      1.547180  
     219A      1.561015   220A      1.573915   221A      1.581157  
     222A      1.590604   223A      1.603884   224A      1.616186  
     225A      1.621656   226A      1.625048   227A      1.636593  
     228A      1.656471   229A      1.657109   230A      1.672617  
     231A      1.712728   232A      1.717155   233A      1.718903  
     234A      1.729952   235A      1.737076   236A      1.766800  
     237A      1.772644   238A      1.782380   239A      1.786955  
     240A      1.793179   241A      1.795539   242A      1.803705  
     243A      1.820494   244A      1.830953   245A      1.844314  
     246A      1.853826   247A      1.861513   248A      1.867275  
     249A      1.873535   250A      1.888752   251A      1.909879  
     252A      1.910040   253A      1.914625   254A      1.929173  
     255A      1.933443   256A      1.937537   257A      1.963960  
     258A      1.965275   259A      1.969287   260A      1.990505  
     261A      1.993155   262A      2.004984   263A      2.016692  
     264A      2.031407   265A      2.033774   266A      2.041426  
     267A      2.043898   268A      2.064890   269A      2.068577  
     270A      2.078525   271A      2.092217   272A      2.093811  
     273A      2.108901   274A      2.116518   275A      2.146327  
     276A      2.165690   277A      2.174007   278A      2.176458  
     279A      2.198339   280A      2.214756   281A      2.228211  
     282A      2.233207   283A      2.245957   284A      2.288035  
     285A      2.291839   286A      2.300900   287A      2.312955  
     288A      2.330812   289A      2.343774   290A      2.352434  
     291A      2.366765   292A      2.369951   293A      2.375895  
     294A      2.386468   295A      2.392819   296A      2.398691  
     297A      2.409617   298A      2.417046   299A      2.436497  
     300A      2.439316   301A      2.443584   302A      2.477222  
     303A      2.503815   304A      2.526347   305A      2.534048  
     306A      2.537127   307A      2.553343   308A      2.565139  
     309A      2.573932   310A      2.588271   311A      2.609618  
     312A      2.613845   313A      2.632282   314A      2.641682  
     315A      2.645317   316A      2.659243   317A      2.674413  
     318A      2.683149   319A      2.692382   320A      2.714579  
     321A      2.717242   322A      2.743568   323A      2.783168  
     324A      2.803269   325A      2.814100   326A      2.818594  
     327A      2.833598   328A      2.839670   329A      2.859693  
     330A      2.867522   331A      2.879698   332A      2.881889  
     333A      2.897561   334A      2.915334   335A      2.949138  
     336A      2.949396   337A      2.963849   338A      2.969129  
     339A      2.976276   340A      3.008720   341A      3.029184  
     342A      3.035716   343A      3.067205   344A      3.072191  
     345A      3.119815   346A      3.123477   347A      3.136549  
     348A      3.160087   349A      3.161905   350A      3.186722  
     351A      3.198160   352A      3.211247   353A      3.219099  
     354A      3.225637   355A      3.251923   356A      3.275997  
     357A      3.291696   358A      3.294111   359A      3.302156  
     360A      3.316372   361A      3.328635   362A      3.350732  
     363A      3.382152   364A      3.394130   365A      3.433940  
     366A      3.458412   367A      3.466462   368A      3.473457  
     369A      3.484507   370A      3.503697   371A      3.504472  
     372A      3.511819   373A      3.543561   374A      3.571896  
     375A      3.594874   376A      3.635982   377A      3.648745  
     378A      3.662144   379A      3.671462   380A      3.693759  
     381A      3.712373   382A      3.725293   383A      3.734479  
     384A      3.758002   385A      3.762575   386A      3.785535  
     387A      3.802790   388A      3.823455   389A      3.826056  
     390A      3.845853   391A      3.847557   392A      3.878880  
     393A      3.898214   394A      3.902317   395A      3.915376  
     396A      3.918259   397A      3.933078   398A      3.935145  
     399A      3.946937   400A      3.956765   401A      3.963255  
     402A      3.989011   403A      3.990804   404A      4.006151  
     405A      4.017070   406A      4.032230   407A      4.043871  
     408A      4.052747   409A      4.056437   410A      4.067824  
     411A      4.093500   412A      4.096327   413A      4.114882  
     414A      4.128886   415A      4.133942   416A      4.149253  
     417A      4.152594   418A      4.164459   419A      4.173575  
     420A      4.177843   421A      4.185649   422A      4.195306  
     423A      4.215819   424A      4.234441   425A      4.235723  
     426A      4.269045   427A      4.271956   428A      4.283084  
     429A      4.296287   430A      4.296987   431A      4.302276  
     432A      4.317761   433A      4.334637   434A      4.347604  
     435A      4.348434   436A      4.353950   437A      4.366975  
     438A      4.377920   439A      4.381668   440A      4.388395  
     441A      4.401240   442A      4.406797   443A      4.434082  
     444A      4.442067   445A      4.443851   446A      4.469826  
     447A      4.471711   448A      4.481307   449A      4.495678  
     450A      4.496395   451A      4.504248   452A      4.525969  
     453A      4.531747   454A      4.556643   455A      4.604792  
     456A      4.607855   457A      4.611591   458A      4.627873  
     459A      4.633975   460A      4.640423   461A      4.660497  
     462A      4.677731   463A      4.704981   464A      4.728024  
     465A      4.738067   466A      4.756454   467A      4.762842  
     468A      4.774480   469A      4.785038   470A      4.822921  
     471A      4.845975   472A      4.850065   473A      4.891315  
     474A      4.919469   475A      4.947068   476A      4.949748  
     477A      4.969874   478A      5.007704   479A      5.018000  
     480A      5.053851   481A      5.062344   482A      5.093644  
     483A      5.098620   484A      5.111804   485A      5.136751  
     486A      5.150054   487A      5.185793   488A      5.198389  
     489A      5.203111   490A      5.241164   491A      5.267957  
     492A      5.300612   493A      5.305041   494A      5.312179  
     495A      5.327059   496A      5.349800   497A      5.357327  
     498A      5.370176   499A      5.381252   500A      5.394817  
     501A      5.424384   502A      5.482994   503A      5.553189  
     504A      5.567264   505A      5.571698   506A      5.605483  
     507A      5.654291   508A      5.665870   509A      5.668963  
     510A      5.692165   511A      5.698831   512A      5.717405  
     513A      5.721215   514A      5.749343   515A      5.755890  
     516A      5.761561   517A      5.807516   518A      5.831687  
     519A      5.846851   520A      5.884141   521A      5.888692  
     522A      5.922255   523A      5.962055   524A      5.982296  
     525A      5.996078   526A      6.008573   527A      6.013724  
     528A      6.019027   529A      6.026616   530A      6.031414  
     531A      6.033326   532A      6.036570   533A      6.062897  
     534A      6.066036   535A      6.097209   536A      6.145284  
     537A      6.175085   538A      6.197666   539A      6.200811  
     540A      6.204605   541A      6.205066   542A      6.226237  
     543A      6.228603   544A      6.235630   545A      6.246253  
     546A      6.260036   547A      6.260315   548A      6.279567  
     549A      6.295573   550A      6.309060   551A      6.338619  
     552A      6.349502   553A      6.362620   554A      6.370629  
     555A      6.379041   556A      6.380936   557A      6.403648  
     558A      6.404254   559A      6.420095   560A      6.436196  
     561A      6.452334   562A      6.453417   563A      6.473684  
     564A      6.479036   565A      6.503689   566A      6.516603  
     567A      6.529393   568A      6.537872   569A      6.579064  
     570A      6.582494   571A      6.646135   572A      6.648678  
     573A      6.652201   574A      6.653021   575A      6.728298  
     576A      6.756699   577A      6.761458   578A      6.767516  
     579A      6.817044   580A      6.819293   581A      7.057653  
     582A      7.059605   583A      7.064465   584A      7.065448  
     585A      7.082815   586A      7.101866   587A      7.151077  
     588A      7.175489   589A      7.179599   590A      7.223421  
     591A      7.223485   592A      7.231059   593A      7.248851  
     594A      7.255319   595A      7.431503   596A      7.438056  
     597A      7.450869   598A      7.451216   599A      7.498674  
     600A      7.515567   601A      7.523087   602A      7.524756  
     603A      7.562384   604A      7.571272   605A      7.620731  
     606A      7.637533   607A      7.767142   608A      7.810536  
     609A      7.889123   610A      7.891956   611A      7.904530  
     612A      7.907735   613A      8.120390   614A      8.126880  
     615A      8.133599   616A      8.135801   617A      8.604584  
     618A      8.637403   619A      8.654144   620A      8.658432  
     621A      8.720092   622A      8.744654   623A      8.758032  
     624A      8.800227   625A      8.814465   626A      8.831654  
     627A      8.838908   628A      8.856323   629A      8.866154  
     630A      8.882597   631A      8.908631   632A      8.911109  
     633A      8.976735   634A      8.984971   635A      8.999497  
     636A      9.005938   637A      9.042501   638A      9.061484  
     639A      9.065942   640A      9.084476   641A      9.113427  
     642A      9.123386   643A      9.165123   644A      9.177509  
     645A      9.199796   646A      9.208498   647A      9.209687  
     648A      9.214929   649A      9.223645   650A      9.229341  
     651A      9.239887   652A      9.241267   653A      9.323677  
     654A      9.326497   655A      9.337236   656A      9.347159  
     657A      9.451345   658A      9.451621   659A      9.465076  
     660A      9.466558   661A      9.468669   662A      9.469381  
     663A      9.481744   664A      9.485835   665A      9.655171  
     666A      9.657410   667A      9.664344   668A      9.666513  
     669A      9.692660   670A      9.702971   671A      9.704184  
     672A      9.710698   673A      9.981415   674A      9.982774  
     675A      9.992476   676A     10.000489   677A     10.167191  
     678A     10.187944   679A     10.226430   680A     10.235337  
     681A     10.242805   682A     10.275653   683A     10.326831  
     684A     10.330645   685A     10.341436   686A     10.344399  
     687A     10.670738   688A     10.677292   689A     10.699773  
     690A     10.713905   691A     11.849081   692A     11.850832  
     693A     11.879176   694A     11.882901   695A     14.419441  
     696A     14.427910   697A     18.872528   698A     18.877592  
     699A     18.901189   700A     18.904011   701A     19.064028  
     702A     19.073574   703A     19.089517   704A     19.098902  
     705A     65.848468   706A     65.894334   707A     65.905523  
     708A     65.947126   709A     65.980970   710A     65.990339  
     711A     66.879565   712A     66.909180   713A     66.909857  
     714A     66.922516   715A     94.180648   716A     94.189766  
     717A    126.283028   718A    126.309817   719A    126.345476  
     720A    126.350888   721A    126.470066   722A    126.474237  
     723A    126.506440   724A    126.518273  

    Final Occupation by Irrep:
              A 
    DOCC [     5 ]

  @DF-RHF Final Energy:  -198.82322080425675

   => Energetics <=

    Nuclear Repulsion Energy =              0.0000000000000000
    One-Electron Energy =                -271.1081666648407804
    Two-Electron Energy =                  72.2849458605840169
    Total Energy =                       -198.8232208042567777

Computation Completed


Properties will be evaluated at   0.000000,   0.000000,   0.000000 [a0]

Properties computed using the SCF density matrix

  Nuclear Dipole Moment: [e a0]
     X:   -19.7013      Y:    16.7531      Z:    -7.9961

  Electronic Dipole Moment: [e a0]
     X:    16.4188      Y:   -13.9618      Z:     6.6638

  Dipole Moment: [e a0]
     X:    -3.2825      Y:     2.7913      Z:    -1.3322     Total:     4.5101

  Dipole Moment: [D]
     X:    -8.3433      Y:     7.0948      Z:    -3.3862     Total:    11.4635


*** tstop() called on osmium at Sat Jan 16 18:51:50 2021
Module time:
	user time   =     200.83 seconds =       3.35 minutes
	system time =      11.69 seconds =       0.19 minutes
	total time  =         39 seconds =       0.65 minutes
Total time:
	user time   =    1110.84 seconds =      18.51 minutes
	system time =      40.80 seconds =       0.68 minutes
	total time  =        202 seconds =       3.37 minutes

  //>>>>>>>>>>>>>>>>>>>>>>>>>>>>>>>>>>>//
  //     Monomer B HF (Dimer Basis)    //
  //<<<<<<<<<<<<<<<<<<<<<<<<<<<<<<<<<<<//


*** tstart() called on osmium
*** at Sat Jan 16 18:51:50 2021

   => Loading Basis Set <=

    Name: DEF2-TZVP
    Role: ORBITAL
    Keyword: BASIS
    atoms 1                                      entry MG         line   327 file /home/eric/.pyenv/versions/miniconda3-4.7.12/envs/cclib_berquist_37/share/psi4/basis/def2-tzvp.gbs 
    atoms 2, 4, 26-27, 29-30, 32-33              entry O          line   189 file /home/eric/.pyenv/versions/miniconda3-4.7.12/envs/cclib_berquist_37/share/psi4/basis/def2-tzvp.gbs 
    atoms 3, 5, 9, 12, 15, 19, 22, 25, 28, 31    entry C          line   123 file /home/eric/.pyenv/versions/miniconda3-4.7.12/envs/cclib_berquist_37/share/psi4/basis/def2-tzvp.gbs 
    atoms 6-7, 10-11, 13-14, 16-17, 20-21, 23-24 entry H          line    15 file /home/eric/.pyenv/versions/miniconda3-4.7.12/envs/cclib_berquist_37/share/psi4/basis/def2-tzvp.gbs 
    atoms 8, 18                                  entry N          line   156 file /home/eric/.pyenv/versions/miniconda3-4.7.12/envs/cclib_berquist_37/share/psi4/basis/def2-tzvp.gbs 


         ---------------------------------------------------------
                                   SCF
               by Justin Turney, Rob Parrish, Andy Simmonett
                          and Daniel G. A. Smith
                              RHF Reference
                        6 Threads,    500 MiB Core
         ---------------------------------------------------------

  ==> Geometry <==

    Molecular point group: c1
    Full point group: C1

    Geometry (in Angstrom), charge = -4, multiplicity = 1:

       Center              X                  Y                   Z               Mass       
    ------------   -----------------  -----------------  -----------------  -----------------
      Gh(MG)         -0.868789628053     0.738782002315    -0.352611369377    23.985041697000
         O           -0.952243048553     0.766811265815     1.965754588523    15.994914619570
         C            0.101365697347     0.785753000315     2.666933995123    12.000000000000
         O            0.131752707247     0.675072302015     3.905986291623    15.994914619570
         C            1.434014489447     1.036793573615     1.957234474423    12.000000000000
         H            2.237946439047     0.561669789615     2.528499692123     1.007825032230
         H            1.588894193647     2.116210982415     2.038860576723     1.007825032230
         N            1.492051040747     0.654084266215     0.545073873023    14.003074004430
         C            2.241872887647     1.630309006715    -0.237397455577    12.000000000000
         H            2.485957272747     1.191798991515    -1.208166933577     1.007825032230
         H            3.188527669947     1.909859884915     0.237621922023     1.007825032230
         C            1.991719943647    -0.713423567085     0.362102494423    12.000000000000
         H            2.263538852747    -0.839882882185    -0.686535070777     1.007825032230
         H            2.904198212047    -0.881149627685     0.948786040823     1.007825032230
         C            0.965778032147    -1.763310650385     0.754485767523    12.000000000000
         H            0.679035617147    -1.621946479285     1.797230872623     1.007825032230
         H            1.436960384347    -2.752500772885     0.687995748423     1.007825032230
         N           -0.247540344153    -1.699589528985    -0.067966452377    14.003074004430
         C           -1.397871294653    -2.318812284685     0.579773095523    12.000000000000
         H           -1.373319038153    -2.080390347985     1.646095408523     1.007825032230
         H           -1.389005479153    -3.411005952785     0.492742865723     1.007825032230
         C           -0.037723948653    -2.244297532085    -1.409538721877    12.000000000000
         H           -0.986213614453    -2.638358858885    -1.784489981277     1.007825032230
         H            0.663812147447    -3.084797840485    -1.391506952377     1.007825032230
         C            0.408500801447    -1.243777620585    -2.478208570077    12.000000000000
         O            1.007597287347    -1.701153435085    -3.468133288877    15.994914619570
         O            0.088646066547    -0.028472956085    -2.325197729277    15.994914619570
         C            1.444989023647     2.901987956715    -0.549651917077    12.000000000000
         O            2.093016629547     3.930358187215    -0.812757668077    15.994914619570
         O            0.180207099047     2.818980678215    -0.568788862577    15.994914619570
         C           -2.742651397853    -1.787252630785     0.069639896323    12.000000000000
         O           -3.738914029653    -2.513887652585     0.230662774423    15.994914619570
         O           -2.768601437553    -0.625798878085    -0.437800595277    15.994914619570

  Running in c1 symmetry.

  Rotational constants: A =      0.01270  B =      0.00919  C =      0.00722 [cm^-1]
  Rotational constants: A =    380.66027  B =    275.60413  C =    216.47472 [MHz]
  Nuclear repulsion = 1674.528074874097456

  Charge       = -4
  Multiplicity = 1
  Electrons    = 154
  Nalpha       = 77
  Nbeta        = 77

  ==> Algorithm <==

  SCF Algorithm Type is DF.
  DIIS enabled.
  MOM disabled.
  Fractional occupation disabled.
  Guess Type is SAD.
  Energy threshold   = 1.00e-08
  Density threshold  = 1.00e-08
  Integral threshold = 0.00e+00

  ==> Primary Basis <==

  Basis Set: DEF2-TZVP
    Blend: DEF2-TZVP
    Number of shells: 280
    Number of basis function: 724
    Number of Cartesian functions: 827
    Spherical Harmonics?: true
    Max angular momentum: 3

   => Loading Basis Set <=

    Name: (DEF2-TZVP AUX)
    Role: JKFIT
    Keyword: DF_BASIS_SCF
    atoms 1                                      entry MG         line   581 file /home/eric/.pyenv/versions/miniconda3-4.7.12/envs/cclib_berquist_37/share/psi4/basis/def2-tzvp-jkfit.gbs 
    atoms 2, 4, 26-27, 29-30, 32-33              entry O          line   323 file /home/eric/.pyenv/versions/miniconda3-4.7.12/envs/cclib_berquist_37/share/psi4/basis/def2-tzvp-jkfit.gbs 
    atoms 3, 5, 9, 12, 15, 19, 22, 25, 28, 31    entry C          line   203 file /home/eric/.pyenv/versions/miniconda3-4.7.12/envs/cclib_berquist_37/share/psi4/basis/def2-tzvp-jkfit.gbs 
    atoms 6-7, 10-11, 13-14, 16-17, 20-21, 23-24 entry H          line    23 file /home/eric/.pyenv/versions/miniconda3-4.7.12/envs/cclib_berquist_37/share/psi4/basis/def2-tzvp-jkfit.gbs 
    atoms 8, 18                                  entry N          line   263 file /home/eric/.pyenv/versions/miniconda3-4.7.12/envs/cclib_berquist_37/share/psi4/basis/def2-tzvp-jkfit.gbs 

  ==> Pre-Iterations <==

   -------------------------------------------------------
    Irrep   Nso     Nmo     Nalpha   Nbeta   Ndocc  Nsocc
   -------------------------------------------------------
     A        724     724       0       0       0       0
   -------------------------------------------------------
    Total     724     724      77      77      77       0
   -------------------------------------------------------

  ==> Integral Setup <==

  ==> DiskDFJK: Density-Fitted J/K Matrices <==

    J tasked:                  Yes
    K tasked:                  Yes
    wK tasked:                  No
    OpenMP threads:              6
    Integrals threads:           6
    Memory [MiB]:              375
    Algorithm:                Disk
    Integral Cache:           LOAD
    Schwarz Cutoff:          1E-12
    Fitting Condition:       1E-10

   => Auxiliary Basis Set <=

  Basis Set: (DEF2-TZVP AUX)
    Blend: DEF2-TZVP-JKFIT
    Number of shells: 606
    Number of basis function: 1848
    Number of Cartesian functions: 2197
    Spherical Harmonics?: true
    Max angular momentum: 4

  Minimum eigenvalue in the overlap matrix is 7.4659497213E-05.
  Using Symmetric Orthogonalization.

  SCF Guess: Superposition of Atomic Densities via on-the-fly atomic UHF.

  ==> Iterations <==

                           Total Energy        Delta E     RMS |[F,P]|

   @DF-RHF iter SAD: -1091.40114218899066   -1.09140e+03   0.00000e+00 
   @DF-RHF iter   1: -1092.42439358517868   -1.02325e+00   1.96656e-03 DIIS
   @DF-RHF iter   2: -1092.99173469863740   -5.67341e-01   1.40570e-03 DIIS
   @DF-RHF iter   3: -1093.35548311326556   -3.63748e-01   2.04266e-04 DIIS
   @DF-RHF iter   4: -1093.36575960571327   -1.02765e-02   1.03331e-04 DIIS
   @DF-RHF iter   5: -1093.36845498362300   -2.69538e-03   2.00744e-05 DIIS
   @DF-RHF iter   6: -1093.36859831797415   -1.43334e-04   7.23306e-06 DIIS
   @DF-RHF iter   7: -1093.36862192530225   -2.36073e-05   1.72612e-06 DIIS
   @DF-RHF iter   8: -1093.36862434972227   -2.42442e-06   6.98940e-07 DIIS
   @DF-RHF iter   9: -1093.36862469951643   -3.49794e-07   3.51196e-07 DIIS
   @DF-RHF iter  10: -1093.36862478354988   -8.40334e-08   1.19779e-07 DIIS
   @DF-RHF iter  11: -1093.36862479647039   -1.29205e-08   4.41975e-08 DIIS
   @DF-RHF iter  12: -1093.36862479760111   -1.13073e-09   1.55784e-08 DIIS
   @DF-RHF iter  13: -1093.36862479772117   -1.20053e-10   5.21242e-09 DIIS
  Energy and wave function converged.


  ==> Post-Iterations <==

    Orbital Energies [Eh]
    ---------------------

    Doubly Occupied:                                                      

       1A    -19.998402     2A    -19.997513     3A    -19.995150  
       4A    -19.994684     5A    -19.967286     6A    -19.966394  
       7A    -19.964964     8A    -19.964726     9A    -15.073959  
      10A    -15.073938    11A    -10.825279    12A    -10.824423  
      13A    -10.823137    14A    -10.822919    15A    -10.804211  
      16A    -10.803426    17A    -10.781906    18A    -10.781818  
      19A    -10.777447    20A    -10.777136    21A     -0.872485  
      22A     -0.871518    23A     -0.868326    24A     -0.868008  
      25A     -0.771965    26A     -0.756008    27A     -0.750509  
      28A     -0.749595    29A     -0.745978    30A     -0.736184  
      31A     -0.562334    32A     -0.505844    33A     -0.503784  
      34A     -0.454602    35A     -0.393495    36A     -0.337708  
      37A     -0.242746    38A     -0.230374    39A     -0.229197  
      40A     -0.223959    41A     -0.207108    42A     -0.179827  
      43A     -0.164369    44A     -0.155233    45A     -0.152441  
      46A     -0.138926    47A     -0.129574    48A     -0.124167  
      49A     -0.121669    50A     -0.097468    51A     -0.096272  
      52A     -0.093481    53A     -0.085441    54A     -0.081096  
      55A     -0.075633    56A     -0.069988    57A     -0.061080  
      58A     -0.058143    59A     -0.038631    60A     -0.023960  
      61A     -0.021938    62A     -0.019853    63A     -0.007332  
      64A      0.074767    65A      0.077145    66A      0.086919  
      67A      0.090243    68A      0.108620    69A      0.109011  
      70A      0.110505    71A      0.113450    72A      0.116976  
      73A      0.118529    74A      0.119879    75A      0.120649  
      76A      0.126652    77A      0.132256  

    Virtual:                                                              

      78A      0.535054    79A      0.549248    80A      0.559629  
      81A      0.588158    82A      0.593323    83A      0.605190  
      84A      0.618311    85A      0.632713    86A      0.634270  
      87A      0.642427    88A      0.647265    89A      0.672169  
      90A      0.687976    91A      0.688315    92A      0.694573  
      93A      0.698899    94A      0.708793    95A      0.726796  
      96A      0.728485    97A      0.730933    98A      0.735767  
      99A      0.739911   100A      0.758753   101A      0.760412  
     102A      0.762197   103A      0.768232   104A      0.776310  
     105A      0.786118   106A      0.798622   107A      0.801684  
     108A      0.817194   109A      0.831467   110A      0.837523  
     111A      0.841073   112A      0.851069   113A      0.859707  
     114A      0.868511   115A      0.876993   116A      0.888087  
     117A      0.891022   118A      0.898996   119A      0.902283  
     120A      0.911414   121A      0.912589   122A      0.919084  
     123A      0.926339   124A      0.941635   125A      0.950779  
     126A      0.951690   127A      0.961521   128A      0.967223  
     129A      0.974539   130A      0.979020   131A      0.985993  
     132A      0.994958   133A      0.997311   134A      0.999525  
     135A      1.002397   136A      1.010375   137A      1.012170  
     138A      1.019997   139A      1.031614   140A      1.033134  
     141A      1.041654   142A      1.048634   143A      1.052071  
     144A      1.053978   145A      1.058775   146A      1.063913  
     147A      1.065194   148A      1.076171   149A      1.082992  
     150A      1.092282   151A      1.094095   152A      1.107922  
     153A      1.111727   154A      1.116159   155A      1.123021  
     156A      1.129008   157A      1.129221   158A      1.145360  
     159A      1.158511   160A      1.161525   161A      1.168128  
     162A      1.172344   163A      1.177736   164A      1.185996  
     165A      1.191855   166A      1.199600   167A      1.201414  
     168A      1.206610   169A      1.228389   170A      1.232606  
     171A      1.233700   172A      1.240812   173A      1.245256  
     174A      1.255623   175A      1.265230   176A      1.272884  
     177A      1.279358   178A      1.281916   179A      1.284371  
     180A      1.289033   181A      1.315046   182A      1.316740  
     183A      1.325184   184A      1.326900   185A      1.331224  
     186A      1.342924   187A      1.355260   188A      1.357579  
     189A      1.373728   190A      1.381192   191A      1.387123  
     192A      1.388607   193A      1.392924   194A      1.403852  
     195A      1.419377   196A      1.422186   197A      1.429694  
     198A      1.450105   199A      1.454720   200A      1.469881  
     201A      1.476025   202A      1.484838   203A      1.497323  
     204A      1.505801   205A      1.511825   206A      1.512838  
     207A      1.516631   208A      1.526372   209A      1.527650  
     210A      1.545684   211A      1.552554   212A      1.564850  
     213A      1.568172   214A      1.571331   215A      1.582589  
     216A      1.604420   217A      1.606659   218A      1.621966  
     219A      1.627384   220A      1.627509   221A      1.639057  
     222A      1.649351   223A      1.653616   224A      1.659014  
     225A      1.668851   226A      1.681567   227A      1.691988  
     228A      1.707651   229A      1.713073   230A      1.730113  
     231A      1.747029   232A      1.750465   233A      1.751373  
     234A      1.756174   235A      1.782669   236A      1.787316  
     237A      1.797438   238A      1.808366   239A      1.813199  
     240A      1.818713   241A      1.828898   242A      1.831948  
     243A      1.850895   244A      1.851393   245A      1.853026  
     246A      1.874541   247A      1.883466   248A      1.888752  
     249A      1.895282   250A      1.897630   251A      1.916054  
     252A      1.936255   253A      1.940802   254A      1.945690  
     255A      1.969534   256A      2.000374   257A      2.003406  
     258A      2.006366   259A      2.021546   260A      2.030050  
     261A      2.033986   262A      2.042628   263A      2.077432  
     264A      2.111813   265A      2.122653   266A      2.127363  
     267A      2.139476   268A      2.148293   269A      2.150364  
     270A      2.157400   271A      2.196645   272A      2.199084  
     273A      2.215110   274A      2.223098   275A      2.225643  
     276A      2.232669   277A      2.248842   278A      2.251461  
     279A      2.267643   280A      2.277494   281A      2.298746  
     282A      2.299519   283A      2.311571   284A      2.313066  
     285A      2.320384   286A      2.330223   287A      2.344356  
     288A      2.345273   289A      2.351653   290A      2.359975  
     291A      2.363189   292A      2.364879   293A      2.386724  
     294A      2.388871   295A      2.401657   296A      2.403133  
     297A      2.411037   298A      2.422458   299A      2.428113  
     300A      2.430305   301A      2.440892   302A      2.444939  
     303A      2.472940   304A      2.480512   305A      2.485831  
     306A      2.489964   307A      2.508318   308A      2.522200  
     309A      2.538049   310A      2.539126   311A      2.546385  
     312A      2.566980   313A      2.571423   314A      2.595142  
     315A      2.597173   316A      2.629527   317A      2.631240  
     318A      2.646345   319A      2.660772   320A      2.666010  
     321A      2.678709   322A      2.681578   323A      2.696157  
     324A      2.701170   325A      2.710508   326A      2.716653  
     327A      2.728891   328A      2.734425   329A      2.751389  
     330A      2.756121   331A      2.768135   332A      2.775283  
     333A      2.786841   334A      2.790815   335A      2.814162  
     336A      2.820169   337A      2.823571   338A      2.829242  
     339A      2.841527   340A      2.845997   341A      2.850625  
     342A      2.868327   343A      2.884692   344A      2.901310  
     345A      2.903729   346A      2.912605   347A      2.917115  
     348A      2.926822   349A      2.932550   350A      2.938443  
     351A      2.948721   352A      2.973934   353A      2.978067  
     354A      2.987779   355A      2.995702   356A      3.009890  
     357A      3.015271   358A      3.024018   359A      3.052697  
     360A      3.062252   361A      3.063929   362A      3.066543  
     363A      3.094108   364A      3.103838   365A      3.106404  
     366A      3.111865   367A      3.112806   368A      3.142458  
     369A      3.151052   370A      3.160057   371A      3.165357  
     372A      3.177839   373A      3.183306   374A      3.191684  
     375A      3.208827   376A      3.210543   377A      3.221477  
     378A      3.239230   379A      3.240272   380A      3.247492  
     381A      3.255956   382A      3.282975   383A      3.292198  
     384A      3.300193   385A      3.314285   386A      3.329882  
     387A      3.339410   388A      3.346903   389A      3.358537  
     390A      3.375459   391A      3.376331   392A      3.391850  
     393A      3.393911   394A      3.407427   395A      3.415803  
     396A      3.423939   397A      3.436910   398A      3.444769  
     399A      3.458871   400A      3.470702   401A      3.478878  
     402A      3.484520   403A      3.502682   404A      3.509657  
     405A      3.513843   406A      3.530055   407A      3.533685  
     408A      3.549273   409A      3.565962   410A      3.571125  
     411A      3.577984   412A      3.582036   413A      3.589443  
     414A      3.603518   415A      3.627603   416A      3.636729  
     417A      3.673652   418A      3.693480   419A      3.699644  
     420A      3.716633   421A      3.727523   422A      3.751198  
     423A      3.752105   424A      3.760310   425A      3.776683  
     426A      3.778215   427A      3.793175   428A      3.797424  
     429A      3.807783   430A      3.812837   431A      3.835038  
     432A      3.841253   433A      3.848271   434A      3.850232  
     435A      3.855044   436A      3.864040   437A      3.884762  
     438A      3.886754   439A      3.890945   440A      3.899224  
     441A      3.910150   442A      3.917588   443A      3.927277  
     444A      3.928623   445A      3.931913   446A      3.934312  
     447A      3.945707   448A      3.954102   449A      3.967275  
     450A      3.969321   451A      3.985323   452A      3.987683  
     453A      4.002061   454A      4.009012   455A      4.012550  
     456A      4.025043   457A      4.029565   458A      4.033521  
     459A      4.037369   460A      4.051721   461A      4.055176  
     462A      4.080138   463A      4.088120   464A      4.105530  
     465A      4.111048   466A      4.121603   467A      4.138332  
     468A      4.144908   469A      4.148434   470A      4.157342  
     471A      4.160182   472A      4.174243   473A      4.179036  
     474A      4.196436   475A      4.207385   476A      4.208645  
     477A      4.218487   478A      4.219854   479A      4.231476  
     480A      4.240065   481A      4.247840   482A      4.254067  
     483A      4.259627   484A      4.268809   485A      4.279329  
     486A      4.285997   487A      4.287470   488A      4.296026  
     489A      4.298702   490A      4.318060   491A      4.333858  
     492A      4.341214   493A      4.356220   494A      4.366767  
     495A      4.373396   496A      4.386538   497A      4.389427  
     498A      4.404447   499A      4.409053   500A      4.411739  
     501A      4.412300   502A      4.428840   503A      4.429801  
     504A      4.436027   505A      4.447009   506A      4.464012  
     507A      4.475156   508A      4.482026   509A      4.490245  
     510A      4.496429   511A      4.509623   512A      4.529819  
     513A      4.532636   514A      4.545342   515A      4.576472  
     516A      4.582546   517A      4.589874   518A      4.608715  
     519A      4.615083   520A      4.640942   521A      4.648252  
     522A      4.661251   523A      4.682811   524A      4.715925  
     525A      4.736667   526A      4.758984   527A      4.764174  
     528A      4.769730   529A      4.782155   530A      4.783501  
     531A      4.798464   532A      4.801449   533A      4.836975  
     534A      4.850091   535A      4.856873   536A      4.866617  
     537A      4.894332   538A      4.909019   539A      4.911221  
     540A      4.916931   541A      4.933375   542A      4.972666  
     543A      4.981493   544A      5.000890   545A      5.030949  
     546A      5.092502   547A      5.129596   548A      5.145885  
     549A      5.163694   550A      5.196277   551A      5.252496  
     552A      5.282962   553A      5.286383   554A      5.290212  
     555A      5.301251   556A      5.327987   557A      5.352447  
     558A      5.354078   559A      5.371617   560A      5.384690  
     561A      5.401631   562A      5.434448   563A      5.469712  
     564A      5.500301   565A      5.542235   566A      5.545012  
     567A      5.545871   568A      5.569576   569A      5.599779  
     570A      5.647230   571A      5.658996   572A      5.666070  
     573A      5.673837   574A      5.716827   575A      5.783419  
     576A      5.828153   577A      5.994006   578A      6.018238  
[...]
     540A      5.427508   541A      5.448286   542A      5.450229  
     543A      5.477102   544A      5.510021   545A      5.528871  
     546A      5.549479   547A      5.589422   548A      5.636663  
     549A      5.646420   550A      5.649853   551A      5.660835  
     552A      5.709298   553A      5.776493   554A      5.823737  
     555A      5.979080   556A      6.000705   557A      6.019300  
     558A      6.034397   559A      6.131476   560A      6.138280  
     561A      6.142839   562A      6.147803   563A      6.153916  
     564A      6.164388   565A      6.169141   566A      6.171850  
     567A      6.178688   568A      6.182424   569A      6.185448  
     570A      6.194062   571A      6.199615   572A      6.200972  
     573A      6.207510   574A      6.212042   575A      6.220800  
     576A      6.231048   577A      6.246073   578A      6.275032  
     579A      6.285791   580A      6.288611   581A      6.318281  
     582A      6.331362   583A      6.345480   584A      6.354522  
     585A      6.358094   586A      6.374484   587A      6.382241  
     588A      6.402799   589A      6.434176   590A      6.471350  
     591A      6.545598   592A      6.546541   593A      6.547930  
     594A      6.554489   595A      6.560844   596A      6.561519  
     597A      6.566845   598A      6.568011   599A      6.629271  
     600A      6.635932   601A      6.639197   602A      6.639840  
     603A      6.649055   604A      6.678436   605A      6.716664  
     606A      6.722813   607A      6.817925   608A      6.819767  
     609A      6.856552   610A      6.866821   611A      6.873509  
     612A      6.879649   613A      7.076840   614A      7.080235  
     615A      7.085077   616A      7.092901   617A      7.112961  
     618A      7.117837   619A      7.122425   620A      7.126200  
     621A      7.181429   622A      7.183528   623A      7.184305  
     624A      7.186948   625A      7.397111   626A      7.404210  
     627A      7.404570   628A      7.409891   629A      7.418344  
     630A      7.419427   631A      7.422603   632A      7.424418  
     633A      7.500193   634A      7.505120   635A      7.509716  
     636A      7.510361   637A      7.531235   638A      7.535910  
     639A      7.538786   640A      7.550152   641A      7.585237  
     642A      7.589763   643A      7.604300   644A      7.608757  
     645A      7.817915   646A      7.827681   647A      7.831543  
     648A      7.835025   649A      7.843627   650A      7.844991  
     651A      7.852028   652A      7.853640   653A      7.935516  
     654A      7.936343   655A      7.947033   656A      7.952632  
     657A      8.016009   658A      8.020920   659A      8.034007  
     660A      8.035214   661A      8.184124   662A      8.190445  
     663A      8.195394   664A      8.195983   665A      8.202873  
     666A      8.207145   667A      8.211942   668A      8.214860  
     669A      8.260785   670A      8.262597   671A      8.271291  
     672A      8.281298   673A     24.103210   674A     24.136627  
     675A     24.147502   676A     24.185518   677A     24.202732  
     678A     24.224487   679A     25.092697   680A     25.099351  
     681A     25.121185   682A     25.122874   683A     34.590189  
     684A     34.597463   685A     45.968389   686A     45.987053  
     687A     46.024355   688A     46.026297   689A     46.028972  
     690A     46.034675   691A     46.065260   692A     46.093529  

    Final Occupation by Irrep:
              A 
    DOCC [    77 ]

  @DF-RHF Final Energy: -1093.36611200743801

   => Energetics <=

    Nuclear Repulsion Energy =           1674.5280748740974559
    One-Electron Energy =               -4915.1430551862122229
    Two-Electron Energy =                2147.2488683046767619
    Total Energy =                      -1093.3661120074380051

Computation Completed


Properties will be evaluated at   0.000000,   0.000000,   0.000000 [a0]

Properties computed using the SCF density matrix

  Nuclear Dipole Moment: [e a0]
     X:    32.5100      Y:   -27.5332      Z:    12.9577

  Electronic Dipole Moment: [e a0]
     X:   -29.1937      Y:    24.7491      Z:   -11.6940

  Dipole Moment: [e a0]
     X:     3.3164      Y:    -2.7841      Z:     1.2638     Total:     4.5107

  Dipole Moment: [D]
     X:     8.4293      Y:    -7.0764      Z:     3.2121     Total:    11.4650


*** tstop() called on osmium at Sat Jan 16 18:56:47 2021
Module time:
	user time   =     849.22 seconds =      14.15 minutes
	system time =      29.03 seconds =       0.48 minutes
	total time  =        153 seconds =       2.55 minutes
Total time:
	user time   =    2760.58 seconds =      46.01 minutes
	system time =      95.13 seconds =       1.59 minutes
	total time  =        499 seconds =       8.32 minutes

   => Loading Basis Set <=

    Name: (DEF2-TZVP AUX)
    Role: RIFIT
    Keyword: DF_BASIS_SAPT
    atoms 1                                      entry MG         line   474 file /home/eric/.pyenv/versions/miniconda3-4.7.12/envs/cclib_berquist_37/share/psi4/basis/def2-tzvp-ri.gbs 
    atoms 2, 4, 26-27, 29-30, 32-33              entry O          line   273 file /home/eric/.pyenv/versions/miniconda3-4.7.12/envs/cclib_berquist_37/share/psi4/basis/def2-tzvp-ri.gbs 
    atoms 3, 5, 9, 12, 15, 19, 22, 25, 28, 31    entry C          line   179 file /home/eric/.pyenv/versions/miniconda3-4.7.12/envs/cclib_berquist_37/share/psi4/basis/def2-tzvp-ri.gbs 
    atoms 6-7, 10-11, 13-14, 16-17, 20-21, 23-24 entry H          line    22 file /home/eric/.pyenv/versions/miniconda3-4.7.12/envs/cclib_berquist_37/share/psi4/basis/def2-tzvp-ri.gbs 
    atoms 8, 18                                  entry N          line   226 file /home/eric/.pyenv/versions/miniconda3-4.7.12/envs/cclib_berquist_37/share/psi4/basis/def2-tzvp-ri.gbs 


  //>>>>>>>>>>>>>>>>>>>>>>>>>>>>>>>>>>>//
  //        SAPT Charge Transfer       //
  //<<<<<<<<<<<<<<<<<<<<<<<<<<<<<<<<<<<//


  //>>>>>>>>>>>>>>>>>>>>>>>>>>>>>>>>>>>//
  //          Dimer Basis SAPT         //
  //<<<<<<<<<<<<<<<<<<<<<<<<<<<<<<<<<<<//


*** tstart() called on osmium
*** at Sat Jan 16 18:56:48 2021

        SAPT0  
    Ed Hohenstein
     6 June 2009

      Orbital Information
  --------------------------
    NSO        =       724
    NMO        =       724
    NRI        =      1792
    NOCC A     =         5
    NOCC B     =        77
    FOCC A     =         0
    FOCC B     =         0
    NVIR A     =       719
    NVIR B     =       647

    Elst10,r            =    -1.342266494584 [Eh]
    Exch10              =     0.035674997721 [Eh]
    Exch10 (S^2)        =     0.035603915034 [Eh]

    Iter     Energy [mEh]          dE [mEh]         Residual      Time [s]
       1      -0.02051434       0.020514338       1.093902740             2
       2      -0.02212612       0.001611786       0.235709673             5
       3      -0.02260327       0.000477145       0.022767935             8
       4      -0.02258408      -0.000019194       0.002698038            11
       5      -0.02258178      -0.000002297       0.000156957            13
       6      -0.02258195       0.000000167       0.000011300            15
       7      -0.02258194      -0.000000007       0.000000657            18

    CHF Iterations converged


    Iter     Energy [mEh]          dE [mEh]         Residual      Time [s]
       1    -341.45253169     341.452531692     258.868935621             4
       2    -283.58159751     -57.870934186      50.024398126            11
       3    -292.85547399       9.273876482      22.551685868            17
       4    -300.29258369       7.437109705       6.551155277            22
       5    -300.49528166       0.202697964       3.688044814            28
       6    -299.65937533      -0.835906328       1.149831617            32
       7    -299.66503251       0.005657179       0.409084761            37
       8    -299.72466134       0.059628833       0.129046503            42
       9    -299.72919777       0.004536430       0.036750395            46
      10    -299.72579978      -0.003397995       0.012526093            51
      11    -299.72489667      -0.000903105       0.002641211            55
      12    -299.72520568       0.000309003       0.001101419            59
      13    -299.72524349       0.000037811       0.000517152            63
      14    -299.72520228      -0.000041211       0.000243500            69
      15    -299.72519407      -0.000008201       0.000083249            73
      16    -299.72519955       0.000005476       0.000028884            78
      17    -299.72520019       0.000000637       0.000009218            84
      18    -299.72519973      -0.000000453       0.000002653            90
      19    -299.72519966      -0.000000073       0.000000877            95

    CHF Iterations converged

    Ind20,r (A<-B)      =    -0.000022581938 [Eh]
    Ind20,r (B<-A)      =    -0.299725199661 [Eh]
    Ind20,r             =    -0.299747781599 [Eh]
    Exch-Ind20,r (A<-B) =     0.000011609496 [Eh]
    Exch-Ind20,r (B<-A) =     0.065181343292 [Eh]
    Exch-Ind20,r        =     0.065192952787 [Eh]
    Disp20              =    -0.003780862175 [Eh]
    Disp20 (SS)         =    -0.001890431088 [Eh]
    Disp20 (OS)         =    -0.001890431088 [Eh]
    Exch-Disp20         =     0.000668082594 [Eh]
    Exch-Disp20 (SS)    =     0.000410735283 [Eh]
    Exch-Disp20 (OS)    =     0.000257347311 [Eh]

    SAPT Results 
  --------------------------------------------------------------------------------------------------------
    Electrostatics              -1342.26649458 [mEh]    -842.28494169 [kcal/mol]   -3524.12019601 [kJ/mol]
      Elst10,r                  -1342.26649458 [mEh]    -842.28494169 [kcal/mol]   -3524.12019601 [kJ/mol]

    Exchange                       35.67499772 [mEh]      22.38639905 [kcal/mol]      93.66469361 [kJ/mol]
      Exch10                       35.67499772 [mEh]      22.38639905 [kcal/mol]      93.66469361 [kJ/mol]
      Exch10(S^2)                  35.60391503 [mEh]      22.34179399 [kcal/mol]      93.47806604 [kJ/mol]

    Induction                    -239.55942007 [mEh]    -150.32580563 [kcal/mol]    -628.96317075 [kJ/mol]
      Ind20,r                    -299.74778160 [mEh]    -188.09457270 [kcal/mol]    -786.98769216 [kJ/mol]
      Exch-Ind20,r                 65.19295279 [mEh]      40.90919550 [kcal/mol]     171.16407396 [kJ/mol]
      delta HF,r (2)               -5.00459126 [mEh]      -3.14042843 [kcal/mol]     -13.13955255 [kJ/mol]

    Dispersion                     -3.11277958 [mEh]      -1.95329868 [kcal/mol]      -8.17260166 [kJ/mol]
      Disp20                       -3.78086218 [mEh]      -2.37252683 [kcal/mol]      -9.92665227 [kJ/mol]
      Exch-Disp20                   0.66808259 [mEh]       0.41922816 [kcal/mol]       1.75405061 [kJ/mol]
      Disp20 (SS)                  -1.89043109 [mEh]      -1.18626342 [kcal/mol]      -4.96332614 [kJ/mol]
      Disp20 (OS)                  -1.89043109 [mEh]      -1.18626342 [kcal/mol]      -4.96332614 [kJ/mol]
      Exch-Disp20 (SS)              0.41073528 [mEh]       0.25774028 [kcal/mol]       1.07838534 [kJ/mol]
      Exch-Disp20 (OS)              0.25734731 [mEh]       0.16148788 [kcal/mol]       0.67566527 [kJ/mol]

  Total HF                      -1546.15091694 [mEh]    -970.22434827 [kcal/mol]   -4059.41867315 [kJ/mol]
  Total SAPT0                   -1549.26369652 [mEh]    -972.17764694 [kcal/mol]   -4067.59127481 [kJ/mol]

  Special recipe for scaled SAPT0 (see Manual):
    Electrostatics sSAPT0       -1342.26649458 [mEh]    -842.28494169 [kcal/mol]   -3524.12019601 [kJ/mol]
    Exchange sSAPT0                35.67499772 [mEh]      22.38639905 [kcal/mol]      93.66469361 [kJ/mol]
    Induction sSAPT0             -239.16816970 [mEh]    -150.08029232 [kcal/mol]    -627.93594305 [kJ/mol]
    Dispersion sSAPT0              -3.10877014 [mEh]      -1.95078271 [kcal/mol]      -8.16207487 [kJ/mol]
  Total sSAPT0                  -1548.86843670 [mEh]    -971.92961767 [kcal/mol]   -4066.55352032 [kJ/mol]
  --------------------------------------------------------------------------------------------------------

*** tstop() called on osmium at Sat Jan 16 19:03:52 2021
Module time:
	user time   =    2244.96 seconds =      37.42 minutes
	system time =      97.16 seconds =       1.62 minutes
	total time  =        424 seconds =       7.07 minutes
Total time:
	user time   =    5006.87 seconds =      83.45 minutes
	system time =     192.32 seconds =       3.21 minutes
	total time  =        924 seconds =      15.40 minutes

  //>>>>>>>>>>>>>>>>>>>>>>>>>>>>>>>>>>>//
  //         Monomer Basis SAPT        //
  //<<<<<<<<<<<<<<<<<<<<<<<<<<<<<<<<<<<//


*** tstart() called on osmium
*** at Sat Jan 16 19:03:52 2021

        SAPT0  
    Ed Hohenstein
     6 June 2009

      Orbital Information
  --------------------------
    NSO        =       724
    NSO A      =        32
    NSO B      =       692
    NMO        =       724
    NMO A      =        32
    NMO B      =       692
    NRI        =      1792
    NOCC A     =         5
    NOCC B     =        77
    FOCC A     =         0
    FOCC B     =         0
    NVIR A     =        27
    NVIR B     =       615

    Elst10,r            =    -1.349239741132 [Eh]
    Exch10              =     0.038107674186 [Eh]
    Exch10 (S^2)        =     0.038025871652 [Eh]

    Iter     Energy [mEh]          dE [mEh]         Residual      Time [s]
       1      -0.01846317       0.018463169       1.101615900             0
       2      -0.01987785       0.001414683       0.236945045             0
       3      -0.02038341       0.000505557       0.021666906             0
       4      -0.02037136      -0.000012052       0.002828082             0
       5      -0.02036870      -0.000002657       0.000150608             0
       6      -0.02036883       0.000000134       0.000008097             0
       7      -0.02036883      -0.000000003       0.000000421             0

    CHF Iterations converged


    Iter     Energy [mEh]          dE [mEh]         Residual      Time [s]
       1    -295.67522797     295.675227970     254.389106889             5
       2    -236.53390764     -59.141320330      46.768688796            10
       3    -241.86548307       5.331575434      22.119353267            14
       4    -248.56234031       6.696857231       6.488079367            19
       5    -248.93248634       0.370146039       3.492354364            23
       6    -248.23659635      -0.695889994       1.164879007            27
       7    -248.22253222      -0.014064134       0.371985341            32
       8    -248.27076531       0.048233094       0.118588526            36
       9    -248.27656345       0.005798142       0.033444651            40
      10    -248.27441992      -0.002143536       0.011992278            45
      11    -248.27353117      -0.000888746       0.002395874            49
      12    -248.27375377       0.000222601       0.001179850            54
      13    -248.27379325       0.000039478       0.000521376            59
      14    -248.27375868      -0.000034568       0.000237226            63
      15    -248.27374990      -0.000008783       0.000083378            68
      16    -248.27375443       0.000004533       0.000028297            72
      17    -248.27375516       0.000000725       0.000009231            76
      18    -248.27375479      -0.000000369       0.000002560            80
      19    -248.27375471      -0.000000078       0.000000917            85

    CHF Iterations converged

    Ind20,r (A<-B)      =    -0.000020368831 [Eh]
    Ind20,r (B<-A)      =    -0.248273754711 [Eh]
    Ind20,r             =    -0.248294123542 [Eh]
    Exch-Ind20,r (A<-B) =     0.000010026143 [Eh]
    Exch-Ind20,r (B<-A) =     0.023949638965 [Eh]
    Exch-Ind20,r        =     0.023959665108 [Eh]
    Disp20              =    -0.002768010894 [Eh]
    Disp20 (SS)         =    -0.001384005447 [Eh]
    Disp20 (OS)         =    -0.001384005447 [Eh]
    Exch-Disp20         =     0.000073172766 [Eh]
    Exch-Disp20 (SS)    =     0.000004681434 [Eh]
    Exch-Disp20 (OS)    =     0.000068491332 [Eh]

    SAPT Results 
  --------------------------------------------------------------------------------------------------------
    Electrostatics              -1349.23974113 [mEh]    -846.66071996 [kcal/mol]   -3542.42845230 [kJ/mol]
      Elst10,r                  -1349.23974113 [mEh]    -846.66071996 [kcal/mol]   -3542.42845230 [kJ/mol]

    Exchange                       38.10767419 [mEh]      23.91292658 [kcal/mol]     100.05168479 [kJ/mol]
      Exch10                       38.10767419 [mEh]      23.91292658 [kcal/mol]     100.05168479 [kJ/mol]
      Exch10(S^2)                  38.02587165 [mEh]      23.86159471 [kcal/mol]      99.83691227 [kJ/mol]

    Induction                    -237.74481142 [mEh]    -149.18712151 [kcal/mol]    -624.19891639 [kJ/mol]
      Ind20,r                    -248.29412354 [mEh]    -155.80691481 [kcal/mol]    -651.89613155 [kJ/mol]
      Exch-Ind20,r                 23.95966511 [mEh]      15.03491684 [kcal/mol]      62.90609207 [kJ/mol]
      delta HF,r (2)              -13.41035299 [mEh]      -8.41512355 [kcal/mol]     -35.20887692 [kJ/mol]

    Dispersion                     -2.69483813 [mEh]      -1.69103646 [kcal/mol]      -7.07529653 [kJ/mol]
      Disp20                       -2.76801089 [mEh]      -1.73695306 [kcal/mol]      -7.26741160 [kJ/mol]
      Exch-Disp20                   0.07317277 [mEh]       0.04591660 [kcal/mol]       0.19211507 [kJ/mol]
      Disp20 (SS)                  -1.38400545 [mEh]      -0.86847653 [kcal/mol]      -3.63370580 [kJ/mol]
      Disp20 (OS)                  -1.38400545 [mEh]      -0.86847653 [kcal/mol]      -3.63370580 [kJ/mol]
      Exch-Disp20 (SS)              0.00468143 [mEh]       0.00293764 [kcal/mol]       0.01229110 [kJ/mol]
      Exch-Disp20 (OS)              0.06849133 [mEh]       0.04297896 [kcal/mol]       0.17982397 [kJ/mol]

  Total HF                      -1548.87687837 [mEh]    -971.93491489 [kcal/mol]   -4066.57568390 [kJ/mol]
  Total SAPT0                   -1551.57171649 [mEh]    -973.62595135 [kcal/mol]   -4073.65098043 [kJ/mol]

  Special recipe for scaled SAPT0 (see Manual):
    Electrostatics sSAPT0       -1349.23974113 [mEh]    -846.66071996 [kcal/mol]   -3542.42845230 [kJ/mol]
    Exchange sSAPT0                38.10767419 [mEh]      23.91292658 [kcal/mol]     100.05168479 [kJ/mol]
    Induction sSAPT0             -237.58985003 [mEh]    -149.08988177 [kcal/mol]    -623.79206531 [kJ/mol]
    Dispersion sSAPT0              -2.69436488 [mEh]      -1.69073949 [kcal/mol]      -7.07405401 [kJ/mol]
  Total sSAPT0                  -1551.41628185 [mEh]    -973.52841463 [kcal/mol]   -4073.24288683 [kJ/mol]
  --------------------------------------------------------------------------------------------------------

*** tstop() called on osmium at Sat Jan 16 19:08:04 2021
Module time:
	user time   =    1335.52 seconds =      22.26 minutes
	system time =      65.37 seconds =       1.09 minutes
	total time  =        252 seconds =       4.20 minutes
Total time:
	user time   =    6342.39 seconds =     105.71 minutes
	system time =     257.69 seconds =       4.29 minutes
	total time  =       1176 seconds =      19.60 minutes


    SAPT Charge Transfer Analysis
  ------------------------------------------------------------------------------------------------
    SAPT Induction (Dimer Basis)     -234.5548 [mEh]    -147.1854 [kcal/mol]    -615.8236 [kJ/mol]
    SAPT Induction (Monomer Basis)   -224.3345 [mEh]    -140.7720 [kcal/mol]    -588.9900 [kJ/mol]
    SAPT Charge Transfer              -10.2204 [mEh]      -6.4134 [kcal/mol]     -26.8336 [kJ/mol]


    Psi4 stopped on: Saturday, 16 January 2021 07:08PM
    Psi4 wall time for execution: 0:19:36.09

*** Psi4 exiting successfully. Buy a developer a beer!
