
    -----------------------------------------------------------------------
          Psi4: An Open-Source Ab Initio Electronic Structure Package
                               Psi4 1.3.2 release

                         Git: Rev {HEAD} ecbda83 


    R. M. Parrish, L. A. Burns, D. G. A. Smith, A. C. Simmonett,
    A. E. DePrince III, E. G. Hohenstein, U. Bozkaya, A. Yu. Sokolov,
    R. Di Remigio, R. M. Richard, J. F. Gonthier, A. M. James,
    H. R. McAlexander, A. Kumar, M. Saitow, X. Wang, B. P. Pritchard,
    P. Verma, H. F. Schaefer III, K. Patkowski, R. A. King, E. F. Valeev,
    F. A. Evangelista, J. M. Turney, T. D. Crawford, and C. D. Sherrill,
    J. Chem. Theory Comput. 13(7) pp 3185--3197 (2017).
    (doi: 10.1021/acs.jctc.7b00174)


                         Additional Contributions by
    P. Kraus, H. Kruse, M. H. Lechner, M. C. Schieber, R. A. Shaw,
    A. Alenaizan, R. Galvelis, Z. L. Glick, S. Lehtola, and J. P. Misiewicz

    -----------------------------------------------------------------------


    Psi4 started on: Sunday, 27 December 2020 10:27PM

    Process ID: 1513979
    Host:       osmium
    PSIDATADIR: /home/eric/.pyenv/versions/miniconda3-4.7.12/envs/cclib_berquist_37/share/psi4
    Memory:     500.0 MiB
    Threads:    6
    
  ==> Input File <==

--------------------------------------------------------------------------
molecule {
-4 1
N        -0.0324984852    0.0252128278    0.0699954673
C         0.1506536946   -0.3081988937    1.4716845700
H         1.1455545203    0.0194833539    1.7848372542
H        -0.5650438531    0.2345867247    2.1088665011
C         0.3550627868    1.4086427958   -0.1533771928
H         0.0038545828    1.7274193963   -1.1384350129
H        -0.1329463486    2.0806924431    0.5696898691
C        -1.4291262298   -0.1685815636   -0.3211457997
H        -1.8068528298   -1.0580393262    0.1826594771
H        -2.0436790826    0.6738040234    0.0308801807
C         0.0724299417   -1.7919041577    1.8461324197
O         0.1711403738   -2.6726401260    0.9606329382
O        -0.0533235787   -2.0203571865    3.0781819616
C         1.8553097761    1.7207302287   -0.1344518743
O         2.6930402300    0.7963198648   -0.2486534805
O         2.1398875239    2.9436075215   -0.0382700812
C        -1.5747200061   -0.3546924637   -1.8333224495
H        -0.8842953151    0.3097403819   -2.3542008403
H        -1.2671273186   -1.3734446361   -2.0836362010
N        -2.9052815053   -0.1251306163   -2.3922940045
C        -3.9111416499   -0.9488401615   -1.7480460843
H        -3.5008057640   -1.9555945089   -1.6234488046
H        -4.1657940835   -0.5944795093   -0.7388948454
C        -3.2785023362    1.2787867895   -2.3579740846
H        -4.3022776092    1.3704477410   -2.7318230966
H        -3.2868285175    1.6908536856   -1.3401764834
C        -2.4405533913    2.2194702267   -3.2330239761
O        -1.9169566100    1.7842285710   -4.2856389965
O        -2.3845644241    3.4156081414   -2.8442275563
C        -5.2358181920   -1.1360874203   -2.5007302897
O        -5.3173526866   -0.8516830540   -3.7178788560
O        -6.1711829317   -1.6192883084   -1.8096603014

units angstrom
no_reorient
symmetry c1
}

set {
    basis def2-tzvp
}

energy("hf")
--------------------------------------------------------------------------

*** tstart() called on osmium
*** at Sun Dec 27 22:27:22 2020

   => Loading Basis Set <=

    Name: DEF2-TZVP
    Role: ORBITAL
    Keyword: BASIS
    atoms 1, 20                               entry N          line   156 file /home/eric/.pyenv/versions/miniconda3-4.7.12/envs/cclib_berquist_37/share/psi4/basis/def2-tzvp.gbs 
    atoms 2, 5, 8, 11, 14, 17, 21, 24, 27, 30 entry C          line   123 file /home/eric/.pyenv/versions/miniconda3-4.7.12/envs/cclib_berquist_37/share/psi4/basis/def2-tzvp.gbs 
    atoms 3-4, 6-7, 9-10, 18-19, 22-23, 25-26 entry H          line    15 file /home/eric/.pyenv/versions/miniconda3-4.7.12/envs/cclib_berquist_37/share/psi4/basis/def2-tzvp.gbs 
    atoms 12-13, 15-16, 28-29, 31-32          entry O          line   189 file /home/eric/.pyenv/versions/miniconda3-4.7.12/envs/cclib_berquist_37/share/psi4/basis/def2-tzvp.gbs 


         ---------------------------------------------------------
                                   SCF
               by Justin Turney, Rob Parrish, Andy Simmonett
                          and Daniel G. A. Smith
                              RHF Reference
                        6 Threads,    500 MiB Core
         ---------------------------------------------------------

  ==> Geometry <==

    Molecular point group: c1
    Full point group: C1

    Geometry (in Angstrom), charge = -4, multiplicity = 1:

       Center              X                  Y                   Z               Mass       
    ------------   -----------------  -----------------  -----------------  -----------------
         N            1.428025945705    -0.159424013176     1.076469897954    14.003074004430
         C            1.611178125505    -0.492835734676     2.478159000654    12.000000000000
         H            2.606078951205    -0.165153487076     2.791311684854     1.007825032230
         H            0.895480577805     0.049949883724     3.115340931754     1.007825032230
         C            1.815587217705     1.224005954824     0.853097237854    12.000000000000
         H            1.464379013705     1.542782555324    -0.131960582246     1.007825032230
         H            1.327578082305     1.896055602124     1.576164299754     1.007825032230
         C            0.031398201105    -0.353218404576     0.685328630954    12.000000000000
         H           -0.346328398895    -1.242676167176     1.189133907754     1.007825032230
         H           -0.583154651695     0.489167182424     1.037354611354     1.007825032230
         C            1.532954372605    -1.976540998676     2.852606850354    12.000000000000
         O            1.631664804705    -2.857276966976     1.967107368854    15.994914619570
         O            1.407200852205    -2.204994027476     4.084656392254    15.994914619570
         C            3.315834207005     1.536093387724     0.872022556354    12.000000000000
         O            4.153564660905     0.611683023824     0.757820950154    15.994914619570
         O            3.600411954805     2.758970680524     0.968204349454    15.994914619570
         C           -0.114195575195    -0.539329304676    -0.826848018846    12.000000000000
         H            0.576229115805     0.125103540924    -1.347726409646     1.007825032230
         H            0.193397112305    -1.558081477076    -1.077161770346     1.007825032230
         N           -1.444757074395    -0.309767457276    -1.385819573846    14.003074004430
         C           -2.450617218995    -1.133477002476    -0.741571653646    12.000000000000
         H           -2.040281333095    -2.140231349876    -0.616974373946     1.007825032230
         H           -2.705269652595    -0.779116350276     0.267579585254     1.007825032230
         C           -1.817977905295     1.094149948524    -1.351499653946    12.000000000000
         H           -2.841753178295     1.185810900024    -1.725348665946     1.007825032230
         H           -1.826304086595     1.506216844624    -0.333702052746     1.007825032230
         C           -0.980028960395     2.034833385724    -2.226549545446    12.000000000000
         O           -0.456432179095     1.599591730024    -3.279164565846    15.994914619570
         O           -0.924039993195     3.230971300424    -1.837753125646    15.994914619570
         C           -3.775293761095    -1.320724261276    -1.494255859046    12.000000000000
         O           -3.856828255695    -1.036319894976    -2.711404425346    15.994914619570
         O           -4.710658500795    -1.803925149376    -0.803185870746    15.994914619570

  Running in c1 symmetry.

  Rotational constants: A =      0.01279  B =      0.00663  C =      0.00471 [cm^-1]
  Rotational constants: A =    383.54224  B =    198.91129  C =    141.20919 [MHz]
  Nuclear repulsion = 1569.553699073327607

  Charge       = -4
  Multiplicity = 1
  Electrons    = 154
  Nalpha       = 77
  Nbeta        = 77

  ==> Algorithm <==

  SCF Algorithm Type is DF.
  DIIS enabled.
  MOM disabled.
  Fractional occupation disabled.
  Guess Type is SAD.
  Energy threshold   = 1.00e-06
  Density threshold  = 1.00e-06
  Integral threshold = 0.00e+00

  ==> Primary Basis <==

  Basis Set: DEF2-TZVP
    Blend: DEF2-TZVP
    Number of shells: 268
    Number of basis function: 692
    Number of Cartesian functions: 792
    Spherical Harmonics?: true
    Max angular momentum: 3

   => Loading Basis Set <=

    Name: (DEF2-TZVP AUX)
    Role: JKFIT
    Keyword: DF_BASIS_SCF
    atoms 1, 20                               entry N          line   263 file /home/eric/.pyenv/versions/miniconda3-4.7.12/envs/cclib_berquist_37/share/psi4/basis/def2-tzvp-jkfit.gbs 
    atoms 2, 5, 8, 11, 14, 17, 21, 24, 27, 30 entry C          line   203 file /home/eric/.pyenv/versions/miniconda3-4.7.12/envs/cclib_berquist_37/share/psi4/basis/def2-tzvp-jkfit.gbs 
    atoms 3-4, 6-7, 9-10, 18-19, 22-23, 25-26 entry H          line    23 file /home/eric/.pyenv/versions/miniconda3-4.7.12/envs/cclib_berquist_37/share/psi4/basis/def2-tzvp-jkfit.gbs 
    atoms 12-13, 15-16, 28-29, 31-32          entry O          line   323 file /home/eric/.pyenv/versions/miniconda3-4.7.12/envs/cclib_berquist_37/share/psi4/basis/def2-tzvp-jkfit.gbs 

  ==> Pre-Iterations <==

   -------------------------------------------------------
    Irrep   Nso     Nmo     Nalpha   Nbeta   Ndocc  Nsocc
   -------------------------------------------------------
     A        692     692       0       0       0       0
   -------------------------------------------------------
    Total     692     692      77      77      77       0
   -------------------------------------------------------

  ==> Integral Setup <==

  ==> DiskDFJK: Density-Fitted J/K Matrices <==

    J tasked:                  Yes
    K tasked:                  Yes
    wK tasked:                  No
    OpenMP threads:              6
    Integrals threads:           6
    Memory [MiB]:              375
    Algorithm:                Disk
    Integral Cache:           NONE
    Schwarz Cutoff:          1E-12
    Fitting Condition:       1E-10

   => Auxiliary Basis Set <=

  Basis Set: (DEF2-TZVP AUX)
    Blend: DEF2-TZVP-JKFIT
    Number of shells: 572
    Number of basis function: 1736
    Number of Cartesian functions: 2060
    Spherical Harmonics?: true
    Max angular momentum: 4

  Minimum eigenvalue in the overlap matrix is 9.1629913743E-05.
  Using Symmetric Orthogonalization.

  SCF Guess: Superposition of Atomic Densities via on-the-fly atomic UHF.

  ==> Iterations <==

                           Total Energy        Delta E     RMS |[F,P]|

   @DF-RHF iter SAD: -1091.51940275065635   -1.09152e+03   0.00000e+00 
   @DF-RHF iter   1: -1092.71315517948278   -1.19375e+00   1.94773e-03 DIIS
   @DF-RHF iter   2: -1093.26939394563192   -5.56239e-01   1.25464e-03 DIIS
   @DF-RHF iter   3: -1093.51121707858215   -2.41823e-01   1.52540e-04 DIIS
   @DF-RHF iter   4: -1093.51881400235879   -7.59692e-03   5.81204e-05 DIIS
   @DF-RHF iter   5: -1093.51985305136168   -1.03905e-03   1.26856e-05 DIIS
   @DF-RHF iter   6: -1093.51990635188622   -5.33005e-05   6.15446e-06 DIIS
   @DF-RHF iter   7: -1093.51991609906645   -9.74718e-06   1.34168e-06 DIIS
   @DF-RHF iter   8: -1093.51991697453059   -8.75464e-07   5.39787e-07 DIIS
  Energy and wave function converged.


  ==> Post-Iterations <==

    Orbital Energies [Eh]
    ---------------------

    Doubly Occupied:                                                      

       1A    -20.045164     2A    -20.041848     3A    -20.038425  
       4A    -20.033896     5A    -20.030135     6A    -20.029092  
       7A    -20.025740     8A    -20.022525     9A    -15.106325  
      10A    -15.104904    11A    -10.884662    12A    -10.877980  
      13A    -10.871749    14A    -10.867222    15A    -10.815798  
      16A    -10.808827    17A    -10.808167    18A    -10.805445  
      19A    -10.802323    20A    -10.801517    21A     -0.927160  
      22A     -0.919839    23A     -0.913303    24A     -0.907612  
      25A     -0.819148    26A     -0.812129    27A     -0.805833  
      28A     -0.800976    29A     -0.796379    30A     -0.779906  
      31A     -0.572225    32A     -0.539347    33A     -0.534422  
      34A     -0.485035    35A     -0.415613    36A     -0.365458  
      37A     -0.281646    38A     -0.270313    39A     -0.267895  
      40A     -0.256796    41A     -0.224616    42A     -0.212164  
      43A     -0.205043    44A     -0.195967    45A     -0.191899  
      46A     -0.183720    47A     -0.164055    48A     -0.157039  
      49A     -0.147459    50A     -0.145333    51A     -0.141208  
      52A     -0.137611    53A     -0.128225    54A     -0.124442  
      55A     -0.115687    56A     -0.109905    57A     -0.094789  
      58A     -0.093458    59A     -0.081012    60A     -0.069688  
      61A     -0.051097    62A     -0.044616    63A     -0.036962  
      64A      0.033609    65A      0.039062    66A      0.040563  
      67A      0.044932    68A      0.046393    69A      0.049770  
      70A      0.053183    71A      0.054233    72A      0.055393  
      73A      0.059928    74A      0.060422    75A      0.066922  
      76A      0.072515    77A      0.094926  

    Virtual:                                                              

      78A      0.546379    79A      0.563887    80A      0.583371  
      81A      0.592900    82A      0.611486    83A      0.619657  
      84A      0.627426    85A      0.633139    86A      0.641755  
      87A      0.654467    88A      0.658363    89A      0.664531  
      90A      0.676502    91A      0.681542    92A      0.688999  
      93A      0.691569    94A      0.700047    95A      0.702691  
      96A      0.713711    97A      0.718654    98A      0.741888  
      99A      0.742237   100A      0.745771   101A      0.750292  
     102A      0.767535   103A      0.776853   104A      0.778728  
     105A      0.788253   106A      0.793253   107A      0.805003  
     108A      0.807730   109A      0.826294   110A      0.828905  
     111A      0.834396   112A      0.841192   113A      0.855600  
     114A      0.856789   115A      0.875136   116A      0.879554  
     117A      0.885461   118A      0.898222   119A      0.903596  
     120A      0.910327   121A      0.918482   122A      0.927636  
     123A      0.939661   124A      0.944753   125A      0.949534  
     126A      0.961123   127A      0.962416   128A      0.964823  
     129A      0.971973   130A      0.973312   131A      0.981840  
     132A      0.985729   133A      0.990687   134A      1.004131  
     135A      1.010407   136A      1.011511   137A      1.013763  
     138A      1.021230   139A      1.028620   140A      1.037135  
     141A      1.040022   142A      1.047313   143A      1.052568  
     144A      1.056039   145A      1.069762   146A      1.081242  
     147A      1.090279   148A      1.092820   149A      1.099095  
     150A      1.099460   151A      1.104825   152A      1.111210  
     153A      1.113694   154A      1.125794   155A      1.131296  
     156A      1.137395   157A      1.143804   158A      1.146578  
     159A      1.150586   160A      1.160320   161A      1.165212  
     162A      1.168253   163A      1.177397   164A      1.185884  
     165A      1.192901   166A      1.202774   167A      1.204993  
     168A      1.209073   169A      1.216317   170A      1.218882  
     171A      1.231351   172A      1.232912   173A      1.243445  
     174A      1.249024   175A      1.262415   176A      1.263775  
     177A      1.273459   178A      1.281554   179A      1.284346  
     180A      1.288707   181A      1.296214   182A      1.308376  
     183A      1.309974   184A      1.314791   185A      1.321390  
     186A      1.333718   187A      1.341994   188A      1.348266  
     189A      1.354220   190A      1.384663   191A      1.389008  
     192A      1.391639   193A      1.400859   194A      1.411742  
     195A      1.417774   196A      1.431904   197A      1.438484  
     198A      1.445223   199A      1.454095   200A      1.457119  
     201A      1.466245   202A      1.483549   203A      1.489040  
     204A      1.498223   205A      1.526659   206A      1.538817  
     207A      1.554413   208A      1.561736   209A      1.569192  
     210A      1.574644   211A      1.582496   212A      1.603100  
     213A      1.619857   214A      1.623233   215A      1.632905  
     216A      1.652750   217A      1.655970   218A      1.673179  
     219A      1.676420   220A      1.687397   221A      1.688159  
     222A      1.698295   223A      1.713971   224A      1.728790  
     225A      1.731781   226A      1.744269   227A      1.760975  
     228A      1.766789   229A      1.771632   230A      1.779867  
     231A      1.792585   232A      1.803904   233A      1.817758  
     234A      1.825095   235A      1.838075   236A      1.845672  
     237A      1.861774   238A      1.892870   239A      1.895874  
     240A      1.903166   241A      1.919959   242A      1.932086  
     243A      1.968524   244A      1.974465   245A      1.977916  
     246A      2.007810   247A      2.028280   248A      2.036879  
     249A      2.043670   250A      2.058855   251A      2.094668  
     252A      2.108577   253A      2.110420   254A      2.119978  
     255A      2.153774   256A      2.164710   257A      2.168439  
     258A      2.186999   259A      2.191940   260A      2.203581  
     261A      2.205740   262A      2.214191   263A      2.223516  
     264A      2.229451   265A      2.236755   266A      2.243723  
     267A      2.253595   268A      2.257339   269A      2.263515  
     270A      2.267838   271A      2.269454   272A      2.279431  
     273A      2.296175   274A      2.307637   275A      2.315516  
     276A      2.317504   277A      2.324147   278A      2.335641  
     279A      2.335860   280A      2.348546   281A      2.351634  
     282A      2.359934   283A      2.366844   284A      2.372893  
     285A      2.382060   286A      2.390401   287A      2.397167  
     288A      2.416131   289A      2.419544   290A      2.429378  
     291A      2.444605   292A      2.458997   293A      2.495293  
     294A      2.497952   295A      2.515483   296A      2.519625  
     297A      2.526178   298A      2.545620   299A      2.546874  
     300A      2.568626   301A      2.579318   302A      2.580025  
     303A      2.593921   304A      2.597813   305A      2.602153  
     306A      2.608620   307A      2.615138   308A      2.635954  
     309A      2.655455   310A      2.661325   311A      2.669192  
     312A      2.680712   313A      2.694911   314A      2.699203  
     315A      2.709429   316A      2.717893   317A      2.726009  
     318A      2.743549   319A      2.755212   320A      2.761276  
     321A      2.769978   322A      2.786241   323A      2.798560  
     324A      2.799227   325A      2.816428   326A      2.822247  
     327A      2.844235   328A      2.857585   329A      2.863927  
     330A      2.890516   331A      2.901411   332A      2.910939  
     333A      2.915162   334A      2.924276   335A      2.935359  
     336A      2.938952   337A      2.951029   338A      2.957411  
     339A      2.967196   340A      2.984375   341A      2.997559  
     342A      2.999749   343A      3.009152   344A      3.017444  
     345A      3.020049   346A      3.027950   347A      3.036357  
     348A      3.047322   349A      3.051057   350A      3.066682  
     351A      3.069998   352A      3.072787   353A      3.081030  
     354A      3.096900   355A      3.122566   356A      3.128644  
     357A      3.145307   358A      3.152855   359A      3.162039  
     360A      3.193212   361A      3.200423   362A      3.219877  
     363A      3.229961   364A      3.245182   365A      3.251023  
     366A      3.262756   367A      3.270072   368A      3.285471  
     369A      3.295377   370A      3.298956   371A      3.323888  
     372A      3.344862   373A      3.347659   374A      3.354547  
     375A      3.374309   376A      3.378367   377A      3.393426  
     378A      3.405843   379A      3.409760   380A      3.427446  
     381A      3.447746   382A      3.456784   383A      3.461061  
     384A      3.464722   385A      3.486647   386A      3.502993  
     387A      3.507554   388A      3.515065   389A      3.527612  
     390A      3.533679   391A      3.546284   392A      3.562531  
     393A      3.588540   394A      3.607221   395A      3.611935  
     396A      3.627453   397A      3.654442   398A      3.660450  
     399A      3.667067   400A      3.673690   401A      3.689501  
     402A      3.702464   403A      3.710816   404A      3.720698  
     405A      3.731142   406A      3.732444   407A      3.745270  
     408A      3.752506   409A      3.763310   410A      3.766920  
     411A      3.776360   412A      3.778871   413A      3.783016  
     414A      3.791018   415A      3.793325   416A      3.805531  
     417A      3.816241   418A      3.821184   419A      3.823693  
     420A      3.828354   421A      3.833416   422A      3.850094  
     423A      3.869050   424A      3.876444   425A      3.886345  
     426A      3.892762   427A      3.906131   428A      3.913534  
     429A      3.919212   430A      3.923052   431A      3.930278  
     432A      3.940624   433A      3.949098   434A      3.957589  
     435A      3.959261   436A      3.983962   437A      4.000290  
     438A      4.004862   439A      4.015778   440A      4.026691  
     441A      4.031236   442A      4.045640   443A      4.052107  
     444A      4.071059   445A      4.079706   446A      4.094836  
     447A      4.096365   448A      4.106132   449A      4.109260  
     450A      4.117116   451A      4.127723   452A      4.135647  
     453A      4.140672   454A      4.149119   455A      4.164344  
     456A      4.168652   457A      4.173301   458A      4.183283  
     459A      4.186528   460A      4.193216   461A      4.203529  
     462A      4.206547   463A      4.209991   464A      4.224891  
     465A      4.229562   466A      4.239110   467A      4.254854  
     468A      4.266967   469A      4.273752   470A      4.279439  
     471A      4.291099   472A      4.296115   473A      4.307692  
     474A      4.309596   475A      4.316910   476A      4.330118  
     477A      4.334391   478A      4.341684   479A      4.355338  
     480A      4.363306   481A      4.368853   482A      4.371616  
     483A      4.381594   484A      4.384675   485A      4.398895  
     486A      4.405739   487A      4.419937   488A      4.423708  
     489A      4.435066   490A      4.449647   491A      4.458778  
     492A      4.473082   493A      4.488604   494A      4.498893  
     495A      4.510041   496A      4.535029   497A      4.540280  
     498A      4.567140   499A      4.593612   500A      4.608770  
     501A      4.640986   502A      4.650466   503A      4.660894  
     504A      4.665486   505A      4.706726   506A      4.713835  
     507A      4.727189   508A      4.745756   509A      4.767170  
     510A      4.785738   511A      4.791682   512A      4.804032  
     513A      4.813063   514A      4.822192   515A      4.834014  
     516A      4.854679   517A      4.864468   518A      4.883734  
     519A      4.896635   520A      4.909878   521A      4.938791  
     522A      4.960621   523A      5.001190   524A      5.046235  
     525A      5.121249   526A      5.137742   527A      5.159189  
     528A      5.195658   529A      5.220669   530A      5.236385  
     531A      5.240768   532A      5.250307   533A      5.254430  
     534A      5.270192   535A      5.286602   536A      5.299523  
     537A      5.310057   538A      5.318556   539A      5.329009  
     540A      5.348781   541A      5.372922   542A      5.398622  
     543A      5.437552   544A      5.448516   545A      5.526103  
     546A      5.533786   547A      5.549020   548A      5.589715  
     549A      5.599786   550A      5.607237   551A      5.656845  
     552A      5.717506   553A      5.743769   554A      5.775231  
     555A      5.902312   556A      5.912733   557A      5.923205  
     558A      5.962966   559A      6.094677   560A      6.101608  
     561A      6.107386   562A      6.110112   563A      6.113275  
     564A      6.118411   565A      6.125442   566A      6.126120  
     567A      6.129928   568A      6.133083   569A      6.134918  
     570A      6.137802   571A      6.139533   572A      6.142084  
     573A      6.144157   574A      6.151181   575A      6.163054  
     576A      6.182236   577A      6.222317   578A      6.236388  
     579A      6.254813   580A      6.264393   581A      6.282890  
     582A      6.297199   583A      6.317733   584A      6.322167  
     585A      6.325905   586A      6.334422   587A      6.358157  
     588A      6.378230   589A      6.393781   590A      6.420628  
     591A      6.489872   592A      6.494138   593A      6.497061  
     594A      6.501712   595A      6.507423   596A      6.512057  
     597A      6.516825   598A      6.518218   599A      6.577260  
     600A      6.585105   601A      6.591954   602A      6.594951  
     603A      6.630974   604A      6.655396   605A      6.663405  
     606A      6.703113   607A      6.772958   608A      6.783369  
     609A      6.820898   610A      6.828145   611A      6.862239  
     612A      6.883441   613A      7.004175   614A      7.013858  
     615A      7.021738   616A      7.040732   617A      7.056094  
     618A      7.060332   619A      7.066945   620A      7.075351  
     621A      7.117192   622A      7.124684   623A      7.132284  
     624A      7.136741   625A      7.334559   626A      7.349330  
     627A      7.350341   628A      7.351602   629A      7.359188  
     630A      7.362572   631A      7.365963   632A      7.372264  
     633A      7.439754   634A      7.447466   635A      7.454934  
     636A      7.455347   637A      7.462184   638A      7.468049  
     639A      7.470154   640A      7.479680   641A      7.517221  
     642A      7.522219   643A      7.537323   644A      7.542972  
     645A      7.760257   646A      7.765958   647A      7.773549  
     648A      7.776745   649A      7.779848   650A      7.786933  
     651A      7.793643   652A      7.805609   653A      7.859330  
     654A      7.869947   655A      7.873666   656A      7.886063  
     657A      7.951050   658A      7.958792   659A      7.964803  
     660A      7.971159   661A      8.121822   662A      8.128686  
     663A      8.134901   664A      8.138699   665A      8.144205  
     666A      8.150464   667A      8.159531   668A      8.165194  
     669A      8.187175   670A      8.190360   671A      8.195860  
     672A      8.199985   673A     24.097728   674A     24.131929  
     675A     24.150401   676A     24.160231   677A     24.192949  
     678A     24.254425   679A     25.029881   680A     25.038968  
     681A     25.048298   682A     25.065601   683A     34.503659  
     684A     34.529216   685A     45.903886   686A     45.910009  
     687A     45.926428   688A     45.939116   689A     45.951477  
     690A     45.972823   691A     45.987075   692A     46.018504  

    Final Occupation by Irrep:
              A 
    DOCC [    77 ]

  @DF-RHF Final Energy: -1093.51991697453059

   => Energetics <=

    Nuclear Repulsion Energy =           1569.5536990733276070
    One-Electron Energy =               -4698.9919269065239860
    Two-Electron Energy =                2035.9183108586657909
    Total Energy =                      -1093.5199169745305880

Computation Completed


Properties will be evaluated at   0.000000,   0.000000,   0.000000 [a0]

Properties computed using the SCF density matrix

  Nuclear Dipole Moment: [e a0]
     X:    -3.0707      Y:     0.8557      Z:     4.4442

  Electronic Dipole Moment: [e a0]
     X:     2.1775      Y:    -0.8700      Z:    -3.4693

  Dipole Moment: [e a0]
     X:    -0.8933      Y:    -0.0143      Z:     0.9749     Total:     1.3223

  Dipole Moment: [D]
     X:    -2.2704      Y:    -0.0363      Z:     2.4779     Total:     3.3610


*** tstop() called on osmium at Sun Dec 27 22:28:15 2020
Module time:
	user time   =     288.64 seconds =       4.81 minutes
	system time =      13.95 seconds =       0.23 minutes
	total time  =         53 seconds =       0.88 minutes
Total time:
	user time   =     288.64 seconds =       4.81 minutes
	system time =      13.95 seconds =       0.23 minutes
	total time  =         53 seconds =       0.88 minutes

    Psi4 stopped on: Sunday, 27 December 2020 10:28PM
    Psi4 wall time for execution: 0:00:52.33

*** Psi4 exiting successfully. Buy a developer a beer!
