                  Welcome to Q-Chem
     A Quantum Leap Into The Future Of Chemistry


 Q-Chem 5.3 (devel), Q-Chem, Inc., Pleasanton, CA (2020)

 Yihan Shao,  Zhengting Gan,  E. Epifanovsky,  A. T. B. Gilbert,  M. Wormit,  
 J. Kussmann,  A. W. Lange,  A. Behn,  Jia Deng,  Xintian Feng,  D. Ghosh,  
 M. Goldey,  P. R. Horn,  L. D. Jacobson,  I. Kaliman,  T. Kus,  A. Landau,  
 Jie Liu,  E. I. Proynov,  R. M. Richard,  R. P. Steele,  E. J. Sundstrom,  
 H. L. Woodcock III,  P. M. Zimmerman,  D. Zuev,  B. Alam,  B. Albrecht,  
 A. Aldossary,  E. Alguire,  S. A. Baeppler,  D. Barton,  Z. Benda,  
 Y. A. Bernard,  E. J. Berquist,  K. B. Bravaya,  H. Burton,  K. Carter-Fenk,  
 D. Casanova,  Chun-Min Chang,  Yunqing Chen,  A. Chien,  K. D. Closser,  
 M. P. Coons,  S. Coriani,  S. Dasgupta,  A. L. Dempwolff,  M. Diedenhofen,  
 Hainam Do,  R. G. Edgar,  Po-Tung Fang,  S. Faraji,  S. Fatehi,  
 Qingguo Feng,  J. Fosso-Tande,  J. Gayvert,  Qinghui Ge,  A. Ghysels,  
 G. Gidofalvi,  J. Gomes,  J. Gonthier,  S. Gulania,  A. Gunina,  D. Hait,  
 M. W. D. Hanson-Heine,  S. Hammes-Schiffer,  P. H. P. Harbach,  
 A. W. Hauser,  M. F. Herbst,  J. E. Herr,  E. G. Hohenstein,  Z. C. Holden,  
 S. Houck,  Kerwin Hui,  B. C. Huynh,  M. Ivanov,  T.-C. Jagau,  Hyunjun Ji,  
 B. Kaduk,  K. Khistyaev,  Jaehoon Kim,  P. Klunzinger,  K. Koh,  
 D. Kosenkov,  L. Koulias,  T. Kowalczyk,  C. M. Krauter,  A. Kunitsa,  
 Ka Un Lao,  A. Laurent,  K. V. Lawler,  Joonho Lee,  D. Lefrancois,  
 S. Lehtola,  D. S. Levine,  Yi-Pei Li,  You-Sheng Lin,  Fenglai Liu,  
 Kuan-Yu Liu,  E. Livshits,  M. Loipersberger,  A. Luenser,  A. Manjanath,  
 P. Manohar,  E. Mansoor,  S. F. Manzer,  Shan-Ping Mao,  Yuezhi Mao,  
 N. Mardirossian,  A. V. Marenich,  T. Markovich,  L. A. Martinez-Martinez,  
 S. A. Maurer,  N. J. Mayhall,  S. C. McKenzie,  J.-M. Mewes,  P. Morgante,  
 A. F. Morrison,  J. W. Mullinax,  K. Nanda,  T. S. Nguyen-Beck,  
 R. Olivares-Amaya,  K. J. Oosterbaan,  J. A. Parkhill,  S. K. Paul,  
 F. Pavosevic,  Zheng Pei,  T. M. Perrine,  F. Plasser,  P. Pokhilko,  
 S. Prager,  A. Prociuk,  E. Ramos,  B. Rana,  D. R. Rehn,  F. Rob,  
 E. Rossomme,  M. Scheurer,  M. Schneider,  N. Sergueev,  S. M. Sharada,  
 S. Sharma,  W. Skomorowski,  D. W. Small,  T. Stauch,  C. J. Stein,  
 T. Stein,  Yu-Chuan Su,  S. P. Veccham,  Zhen Tao,  A. J. W. Thom,  
 A. Tkatchenko,  T. Tsuchimochi,  N. M. Tubman,  L. Vogt,  M. L. Vidal,  
 O. Vydrov,  M. A. Watson,  J. Wenzel,  M. de Wergifosse,  T. A. Wesolowski,  
 A. White,  J. Witte,  A. Yamada,  Jun Yang,  K. Yao,  S. Yeganeh,  
 S. R. Yost,  Zhi-Qiang You,  A. Zech,  Igor Ying Zhang,  Xing Zhang,  
 Yan Zhao,  Ying Zhu,  B. R. Brooks,  G. K. L. Chan,  C. J. Cramer,  
 M. S. Gordon,  W. J. Hehre,  A. Klamt,  M. W. Schmidt,  C. D. Sherrill,  
 D. G. Truhlar,  A. Aspuru-Guzik,  R. Baer,  A. T. Bell,  N. A. Besley,  
 Jeng-Da Chai,  A. E. DePrince, III,  R. A. DiStasio Jr.,  A. Dreuw,  
 B. D. Dunietz,  T. R. Furlani,  Chao-Ping Hsu,  Yousung Jung,  Jing Kong,  
 D. S. Lambrecht,  WanZhen Liang,  C. Ochsenfeld,  V. A. Rassolov,  
 L. V. Slipchenko,  J. E. Subotnik,  T. Van Voorhis,  J. M. Herbert,  
 A. I. Krylov,  P. M. W. Gill,  M. Head-Gordon

 Contributors to earlier versions of Q-Chem not listed above: 
 R. D. Adamson,  B. Austin,  J. Baker,  G. J. O. Beran,  K. Brandhorst,  
 S. T. Brown,  E. F. C. Byrd,  A. K. Chakraborty,  C.-L. Cheng,  
 Siu Hung Chien,  D. M. Chipman,  D. L. Crittenden,  H. Dachsel,  
 R. J. Doerksen,  A. D. Dutoi,  L. Fusti-Molnar,  W. A. Goddard III,  
 A. Golubeva-Zadorozhnaya,  S. R. Gwaltney,  G. Hawkins,  A. Heyden,  
 S. Hirata,  G. Kedziora,  F. J. Keil,  C. Kelley,  Jihan Kim,  R. A. King,  
 R. Z. Khaliullin,  P. P. Korambath,  W. Kurlancheek,  A. M. Lee,  M. S. Lee,  
 S. V. Levchenko,  Ching Yeh Lin,  D. Liotard,  R. C. Lochan,  I. Lotan,  
 P. E. Maslen,  N. Nair,  D. P. O'Neill,  D. Neuhauser,  E. Neuscamman,  
 C. M. Oana,  R. Olson,  B. Peters,  R. Peverati,  P. A. Pieniazek,  
 Y. M. Rhee,  J. Ritchie,  M. A. Rohrdanz,  E. Rosta,  N. J. Russ,  
 H. F. Schaefer III,  N. E. Schultz,  N. Shenvi,  A. C. Simmonett,  A. Sodt,  
 D. Stuck,  K. S. Thanthiriwatte,  V. Vanovschi,  Tao Wang,  A. Warshel,  
 C. F. Williams,  Q. Wu,  X. Xu,  W. Zhang

 Please cite Q-Chem as follows:
 Y. Shao et al., Mol. Phys. 113, 184-215 (2015)
 DOI: 10.1080/00268976.2014.952696

 Q-Chem 5.3.2 for Intel X86 EM64T Linux

 Parts of Q-Chem use Armadillo 9.800.1 (Horizon Scraper).
 http://arma.sourceforge.net/

Compilation information
-----------------------

 SVN revision             | 35976
 SVN branch               | trunk
 Last SVN revision        | 35971
 Last SVN author          | tarek.scheele
 Hostname                 | osmium
 User                     | eric
 System                   | Linux-5.8.14-arch1-1
 Processor                | x86_64
 Compiler                 | GNU
 C compiler version       | 9.3.0
 CXX compiler version     | 9.3.0
 Fortran compiler version | 9.3.0
 Configuration time       | 2021-02-25 00:06:41


 Q-Chem begins on Thu Feb 25 00:19:07 2021  

Host: osmium
0

     Scratch files written to /tmp/qchem/qchem3315776//
Processing $rem in /home/eric/data/opt/apps/qchem/archive/r35971-g9.3.0-openblas/config/preferences:
Processing $rem in /home/eric/.qchemrc:
Symmetry turned off for PCM/SM12/SMD calculation

 Q-Chem warning in module libgen/rem_setup.C, line 2996:

 Neither GIA nor STOLL is specified by user. Use STOLL as the default


Checking the input file for inconsistencies... 	...done.

--------------------------------------------------------------
User input:
--------------------------------------------------------------
$molecule
-2 1
--
2 1
Ca        0.0568200754   -0.0340507487   -0.0241536722
--
-4 1
O        -0.0266333451   -0.0060214852    2.2942122857
C         1.0269754008    0.0129202493    2.9953916923
O         1.0573624107   -0.0977604490    4.2344439888
C         2.3596241929    0.2639608226    2.2856921716
H         3.1635561425   -0.2111629614    2.8569573893
H         2.5145038971    1.3433782314    2.3673182739
N         2.4176607442   -0.1187484848    0.8735315702
C         3.1674825911    0.8574762557    0.0910602416
H         3.4115669762    0.4189662405   -0.8797092364
H         4.1141373734    1.1370271339    0.5660796192
C         2.9173296471   -1.4862563181    0.6905601916
H         3.1891485562   -1.6127156332   -0.3580773736
H         3.8298079155   -1.6539823787    1.2772437380
C         1.8913877356   -2.5361434014    1.0829434647
H         1.6046453206   -2.3947792303    2.1256885698
H         2.3625700878   -3.5253335239    1.0164534456
N         0.6780693593   -2.4724222800    0.2604912448
C        -0.4722615912   -3.0916450357    0.9082307927
H        -0.4477093347   -2.8532230990    1.9745531057
H        -0.4633957757   -4.1838387038    0.8212005629
C         0.8878857548   -3.0171302831   -1.0810810247
H        -0.0606039110   -3.4111916099   -1.4560322841
H         1.5894218509   -3.8576305915   -1.0630492552
C         1.3341105049   -2.0166103716   -2.1497508729
O         1.9332069908   -2.4739861861   -3.1396755917
O         1.0142557700   -0.8013057071   -1.9967400321
C         2.3705987271    2.1291552057   -0.2211942199
O         3.0186263330    3.1575254362   -0.4842999709
O         1.1058168025    2.0461479272   -0.2403311654
C        -1.8170416944   -2.5600853818    0.3980975935
O        -2.8133043262   -3.2867204036    0.5591204716
O        -1.8429917341   -1.3986316291   -0.1093428981
$end

$rem
 jobtype = eda
 method = wb97x-d
 basis = def2-tzvp
 mem_static = 1000
 mem_total = 16000
 solvent_method = smd
$end
--------------------------------------------------------------
 ----------------------------------------------------------------
             Standard Nuclear Orientation (Angstroms)
    I     Atom           X                Y                Z
 ----------------------------------------------------------------
    1      Ca      0.0568200754    -0.0340507487    -0.0241536722
    2      O      -0.0266333451    -0.0060214852     2.2942122857
    3      C       1.0269754008     0.0129202493     2.9953916923
    4      O       1.0573624107    -0.0977604490     4.2344439888
    5      C       2.3596241929     0.2639608226     2.2856921716
    6      H       3.1635561425    -0.2111629614     2.8569573893
    7      H       2.5145038971     1.3433782314     2.3673182739
    8      N       2.4176607442    -0.1187484848     0.8735315702
    9      C       3.1674825911     0.8574762557     0.0910602416
   10      H       3.4115669762     0.4189662405    -0.8797092364
   11      H       4.1141373734     1.1370271339     0.5660796192
   12      C       2.9173296471    -1.4862563181     0.6905601916
   13      H       3.1891485562    -1.6127156332    -0.3580773736
   14      H       3.8298079155    -1.6539823787     1.2772437380
   15      C       1.8913877356    -2.5361434014     1.0829434647
   16      H       1.6046453206    -2.3947792303     2.1256885698
   17      H       2.3625700878    -3.5253335239     1.0164534456
   18      N       0.6780693593    -2.4724222800     0.2604912448
   19      C      -0.4722615912    -3.0916450357     0.9082307927
   20      H      -0.4477093347    -2.8532230990     1.9745531057
   21      H      -0.4633957757    -4.1838387038     0.8212005629
   22      C       0.8878857548    -3.0171302831    -1.0810810247
   23      H      -0.0606039110    -3.4111916099    -1.4560322841
   24      H       1.5894218509    -3.8576305915    -1.0630492552
   25      C       1.3341105049    -2.0166103716    -2.1497508729
   26      O       1.9332069908    -2.4739861861    -3.1396755917
   27      O       1.0142557700    -0.8013057071    -1.9967400321
   28      C       2.3705987271     2.1291552057    -0.2211942199
   29      O       3.0186263330     3.1575254362    -0.4842999709
   30      O       1.1058168025     2.0461479272    -0.2403311654
   31      C      -1.8170416944    -2.5600853818     0.3980975935
   32      O      -2.8133043262    -3.2867204036     0.5591204716
   33      O      -1.8429917341    -1.3986316291    -0.1093428981
 ----------------------------------------------------------------
 Nuclear Repulsion Energy =        2185.03248748 hartrees
 There are       86 alpha and       86 beta electrons
 Requested basis set is def2-TZVP
 There are 282 shells and 728 basis functions

 Total QAlloc Memory Limit  16000 MB
 Mega-Array Size       978 MB
 MEM_STATIC part      1000 MB

 Citation of the SMD model:
 Marenich, A.V.; Cramer, C.J.; Truhlar, D.G.
 J. Phys. Chem. B 2009, 113, 6378-6396.
 iSolventCode=           1
 Solvent: water                                                           

 vradii
            1           2           3           4           5           6
    1   2.7257999   1.5200000   1.8500000   1.5200000   1.8500000   1.2000000
            7           8           9          10          11          12
    1   1.2000000   1.8900000   1.8500000   1.2000000   1.2000000   1.8500000
           13          14          15          16          17          18
    1   1.2000000   1.2000000   1.8500000   1.2000000   1.2000000   1.8900000
           19          20          21          22          23          24
    1   1.8500000   1.2000000   1.2000000   1.8500000   1.2000000   1.2000000
           25          26          27          28          29          30
    1   1.8500000   1.5200000   1.5200000   1.8500000   1.5200000   1.5200000
           31          32          33
    1   1.8500000   1.5200000   1.5200000
 Changing PCM_VDW_RADII to SMD_RADIUS
 Discretize the solute cavity surface with Lebedev spheres
	Using 110 Lebedev grid points for each H atom
	Using 194 Lebedev grid points for other atoms
	Atomic van der Waals radii will be scaled by 1.20
 Remove points where switching function is < 1.0e-08
 Keep 2286 surface tesserae and discard 3108 interior tesserae
 Molecular Surface Area = 267.744 Angst**2
 A cutoff of  1.0D-11 yielded  29093 shell pairs
 There are    186333 function pairs (    237471 Cartesian)
 Smallest overlap matrix eigenvalue = 7.52E-05

 Scale SEOQF with 1.000000e-01/1.000000e-01/1.000000e-01

 Standard Electronic Orientation quadrupole field applied
 Nucleus-field energy     =     0.0000000168 hartrees

 -----------------------------------------------------------------------
  General SCF calculation program by
  Eric Jon Sundstrom, Paul Horn, Yuezhi Mao, Dmitri Zuev, Alec White,
  David Stuck, Shaama M.S., Shane Yost, Joonho Lee, David Small,
  Daniel Levine, Susi Lehtola, Hugh Burton, Evgeny Epifanovsky,
  Bang C. Huynh
 -----------------------------------------------------------------------
================================================================
                 ALMO-EDA with the EDA2 driver                  
================================================================
 The second-generation ALMO-EDA (for DFT):                      
 P. R. Horn, Y. Mao and M. Head-Gordon, PCCP, 18, 23067 (2016)  
 Decomposition of the frozen energy:                            
 P. R. Horn, Y. Mao and M. Head-Gordon, JCP, 144, 114107 (2016) 
 Incorporation of implicit solvents:                            
 Y. Mao, M. Loipersberger et al. Chem. Sci., 12, 1398 (2021)    
Using eda2 option set 2
Option set summary: Frozen orbital wavefunction, initial wavefunction decomposition, and traditional AO-based POL.
--------------------------------
Printing EDA Options
--------------------------------
eda_child_super_basis      0
fragmo_guess_mode          0
child_mp                   0
child_mp_orders            0
cls_elec                   1
cls_disp                   0
scfmi_mode                 1
scfmi_occs                 0
scfmi_virts                0
frz_relax                  0
frz_relax_method           0
dc_pen_start               0
dc_pen_conv                0
dc_pen_increment           0
dc_pen_steps               0
dc_pen_thresh_factor       0
dc_pen_pre_newton_thresh   0
frz_ortho_decomp           1
frz_ortho_decomp_conv      6
plot_mo_ortho_frz          0
frgm_method                2
scfmi_freeze_ss            0
separate_rehyb             0
plot_diff_den              0
eda_nocv                   0
eda_vct_relax              1
disp_free_x                0
disp_free_c                0
eda_bsse                   0
eda_pct_a                  1
eda_covp                   0
--------------------------------
Attempting to make child job directory: /tmp/qchem/qchem3315776//Frg1/
Attempting to make child job directory: /tmp/qchem/qchem3315776//Frg2/
Creating input file /tmp/qchem/qchem3315776/Frg1.input
using default PutDataFrgm: nothing
calling putenv with: QCSCRATCH=/tmp/qchem/qchem3315776/ 
Spawning Job For Fragment 0
Done Job For Fragment 0
calling putenv with: QCSCRATCH=/tmp/qchem 
calling putenv with: QCTHREADS=4 
Creating input file /tmp/qchem/qchem3315776/Frg2.input
using default PutDataFrgm: nothing
calling putenv with: QCSCRATCH=/tmp/qchem/qchem3315776/ 
Spawning Job For Fragment 1
Done Job For Fragment 1
calling putenv with: QCSCRATCH=/tmp/qchem 
calling putenv with: QCTHREADS=4 
Doing General SCFMI
 Exchange:     0.2220 Hartree-Fock + 1.0000 wB97X-D + LR-HF
 Correlation:  1.0000 wB97X-D
 Using SG-2 standard quadrature grid
 Dispersion:   Grimme D
performing fock build before subrot guess so that all methods have access
Printing subrot_rss_gen Method Specification:
Occupied Subspace Method is 0
Virtual Subspace Method is 0
Energy of the unrelaxed supersystem initial determinant -1777.489366626980
performing fock build before subrot guess so that all methods have access
Printing subrot_rss_gen Method Specification:
Occupied Subspace Method is 0
Virtual Subspace Method is 0
Energy of the unrelaxed supersystem initial determinant w/ solvent -1777.813487317006
write pseudocanon occs and virts to disk
write pseudocanon orbital energies to disk
Tolerance of ortho_decomp_scf: 1.00e-06
GDM subspace size: 20
Beginning the Orthogonal Decomposition of the Initial Supersystem Wavefunction
    1   -1775.6912946986      3.07e-01     ortho_decomp Preconditoned Steepest Descent
    2   -1775.8082099280      2.84e-03     ortho_decomp BFGS Step
    3   -1775.8082598568      1.25e-04     ortho_decomp BFGS Step
    4   -1775.8082599591      4.74e-06     ortho_decomp BFGS Step
    5   -1775.8082599592      1.07e-07     ortho_decomp 00000 Convergence criterion met
 Hartree-Fock
 Hartree-Fock
 Hartree-Fock
Doing General SCFMI
 Exchange:     0.2220 Hartree-Fock + 1.0000 wB97X-D + LR-HF
 Correlation:  1.0000 wB97X-D
 Using SG-2 standard quadrature grid
 Dispersion:   Grimme D
performing fock build at end of subrot_r(subrot) constructor so that all methods have access
<S^2> of initial wavefunction before polarization iterations 0.0000000000
Beginning iterations for the determination of the polarized wavefunction
Energy prior to optimization (guess energy) = -1777.813487317005
Begin Timing: Total SCF Calculation
begin iterations for algorithm: DIIS         
the SCF tolerance is set to 1.00e-08
    1   -1777.8134873170      3.85e-04     00000 
    2   -1777.8468577097      2.60e-04     00000 
    3   -1777.8580476351      1.12e-04     00000 
    4   -1777.8600183007      3.02e-05     00000 
    5   -1777.8601658798      1.32e-05     00000 
    6   -1777.8601967275      6.77e-06     00000 
    7   -1777.8602062652      3.62e-06     00000 
    8   -1777.8602089014      2.03e-06     00000 
    9   -1777.8602097492      9.52e-07     00000 
   10   -1777.8602099050      5.67e-07     00000 
   11   -1777.8602099582      2.61e-07     00000 
   12   -1777.8602099686      1.25e-07     00000 
   13   -1777.8602099688      5.56e-08     00000 
   14   -1777.8602099672      3.14e-08     00000 
   15   -1777.8602099631      2.14e-08     00000 
   16   -1777.8602099522      9.84e-09     00000 Convergence criterion met
write pseudocanon occs and virts to disk
write pseudocanon orbital energies to disk
Timing for Total SCF: 1119.00s (wall), 4221.03s (cpu)
<S^2> of polarized wavefunction after polarization iterations 0.0000000000
relaxing scfmi constraint to allow all rotations in the entire AO span
Doing General SCFMI
 Exchange:     0.2220 Hartree-Fock + 1.0000 wB97X-D + LR-HF
 Correlation:  1.0000 wB97X-D
 Using SG-2 standard quadrature grid
 Dispersion:   Grimme D
performing fock build at end of subrot_r(subrot) constructor so that all methods have access
<S^2> of polarized wavefunction before ct-allowed iterations 0.0000000000
Beginning iterations for the determination of the CT-Allowed wavefunction
Energy prior to optimization (guess energy) = -1777.860209970132
Begin Timing: Total SCF Calculation
begin iterations for algorithm: DIIS         
the SCF tolerance is set to 1.00e-08
    1   -1777.8602099701      2.94e-04     00000 
    2   -1777.9019338712      6.58e-05     00000 
    3   -1777.9038717372      3.32e-05     00000 
    4   -1777.9040733143      1.78e-05     00000 
    5   -1777.9041299034      4.96e-06     00000 
    6   -1777.9041351839      1.43e-06     00000 
    7   -1777.9041355920      4.36e-07     00000 
    8   -1777.9041356558      1.30e-07     00000 
    9   -1777.9041356640      3.65e-08     00000 
   10   -1777.9041356649      1.59e-08     00000 
   11   -1777.9041356650      5.02e-09     00000 Convergence criterion met
write pseudocanon occs and virts to disk
write pseudocanon orbital energies to disk
Timing for Total SCF: 824.00s (wall), 3126.94s (cpu)
<S^2> of ct_allowed wavefunction after ct-allowed iterations 0.0000000000
Perturbative CTA
Number of subspaces: 2
Appending the orthogonal complement of the current SCFMI subspace
Number of subspaces in CTA becomes 2
Doing General SCFMI
 Exchange:     0.2220 Hartree-Fock + 1.0000 wB97X-D + LR-HF
 Correlation:  1.0000 wB97X-D
 Using SG-2 standard quadrature grid
 Dispersion:   Grimme D
performing fock build at end of subrot_r(subrot) constructor so that all methods have access
PCT method is RS
RS amplitude (X) obtained in 4 iterations
X in RS PT satisfies the quadratic equation

================================
        Results of EDA2         
================================
Basic EDA Quantities
--------------------
Fragment Energies (Ha):
1 -677.2949559068
2-1100.3048887491
--------------------
  E_prp (kJ/mol) = 0.0000
  E_sol (kJ/mol) = 3232.3618
  E_frz (kJ/mol) = -3752.2816 (unscreened)
 [E_frz(solv) = -519.9198 kJ/mol (unscreened FRZ + SOL)]
  E_pol (kJ/mol) = -122.6717
  E_vct (kJ/mol) = -115.3283
  E_int (kJ/mol) = -757.9199
--------------------


Decomposition of frozen interaction energy
--------------------
  ------------------------------
  Classical Frozen Decomposition (unscreened):
  ------------------------------
     E_cls_elec  (CLS ELEC)  (kJ/mol) = -4298.5648
     E_mod_pauli (MOD PAULI) (kJ/mol) = 564.5232 (FRZ - CLS ELEC - DISP)
     E_disp      (DISP)      (kJ/mol) = -18.2400
  ------------------------------
  Classical Decomposition Terms with Solvent Contributions:
  ------------------------------
     E_sol_elec              (kJ/mol) = 3233.8310
     E_cls_elec(solv)        (kJ/mol) = -1064.7337 (CLS ELEC + SOL ELEC)
     E_sol_nonelec           (kJ/mol) = -1.4693
     E_mod_pauli(solv)       (kJ/mol) = 563.0539 (MOD PAULI + SOL non-ELEC)
  --------------------
  ------------------------------
  Orthogonal Frozen Decomposition (unscreened):
  ------------------------------
     E_elec   (ELEC)   (kJ/mol) = -4300.8892
     E_pauli  (PAULI)  (kJ/mol) = 566.8476
     E_disp   (DISP)   (kJ/mol) = -18.2400
  ------------------------------
  Orthogonal Decomposition Terms with Solvent Contribution:
  ------------------------------
     E_sol_elec        (kJ/mol) = 3233.8310
     E_elec(solv)      (kJ/mol) = -1067.0581 (ELEC + SOL ELEC)
     E_sol_nonelec     (kJ/mol) = -1.4693
     E_pauli(solv)     (kJ/mol) = 565.3783 (PAULI + SOL non-ELEC)
  --------------------
--------------------

--------------------
Perturbative CT Analysis:
--------------------
  E_pct (kJ/mol) = -92.7054
  E_HO  (kJ/mol) = -22.6229 (VCT - PCT) 
  ---------------  
  PCT Energy lowering  (row to column, kJ/mol)
            1           2    
    1   -0.000045   -2.452790
    2  -90.252316   -0.000288
  PCT Charge displacement (row to column, me-)
            1           2    
    1   -0.036188    0.210750
    2   54.540341   -6.847416
--------------------

Simplified EDA Summary (kJ/mol)
--------------------
 PREPARATION      0.0000
 SOLVATION        3232.3618
 FROZEN           -3752.2816 (unscreened ELEC + PAULI + DISP)
[ELEC + PAULI = -3734.0416, DISP = -18.2400]
 POLARIZATION    -122.6717
 CHARGE TRANSFER -115.3283
 TOTAL           -757.9199     (PRP + SOL + FRZ + POL + CT)
--------------------

 --------------------------------------------------------------

                    Orbital Energies (a.u.)
 --------------------------------------------------------------

 Alpha MOs
 -- Occupied --
******** -19.2108 -19.2108 -19.2103 -19.2103 -19.2025 -19.2024 -19.2022
-19.2021 -15.4521 -14.4422 -14.4420 -12.5680 -12.5675 -12.5671 -10.3849
-10.3848 -10.3846 -10.3845 -10.3037 -10.3036 -10.3034 -10.3032 -10.3032
-10.3032  -1.8025  -1.1535  -1.1524  -1.1517  -1.1497  -1.0827  -1.0823
 -1.0801  -1.0591  -1.0546  -1.0427  -1.0416  -1.0368  -1.0230  -0.8592
 -0.8284  -0.8265  -0.7823  -0.7317  -0.6796  -0.6247  -0.6176  -0.6142
 -0.6132  -0.5934  -0.5832  -0.5707  -0.5636  -0.5576  -0.5493  -0.5350
 -0.5312  -0.5285  -0.5248  -0.5189  -0.5174  -0.5110  -0.5034  -0.5011
 -0.4898  -0.4893  -0.4716  -0.4522  -0.4480  -0.4439  -0.4422  -0.4165
 -0.3692  -0.3639  -0.3624  -0.3622  -0.3614  -0.3603  -0.3562  -0.3506
 -0.3478  -0.3459  -0.3412  -0.3403  -0.3231  -0.3185
 -- Virtual --
  0.0636   0.0828   0.0894   0.0897   0.1054   0.1059   0.1131   0.1154
  0.1516   0.1526   0.1574   0.1642   0.1688   0.1764   0.1829   0.1849
  0.2001   0.2023   0.2048   0.2075   0.2089   0.2140   0.2167   0.2177
  0.2262   0.2367   0.2428   0.2463   0.2566   0.2589   0.2618   0.2743
  0.2758   0.2799   0.2807   0.2945   0.2950   0.3035   0.3080   0.3238
  0.3242   0.3290   0.3393   0.3406   0.3549   0.3578   0.3658   0.3677
  0.3694   0.3815   0.3836   0.3850   0.3917   0.3960   0.4005   0.4013
  0.4139   0.4195   0.4219   0.4327   0.4405   0.4474   0.4495   0.4617
  0.4661   0.4673   0.4742   0.4775   0.4839   0.4873   0.4882   0.4965
  0.5063   0.5072   0.5085   0.5146   0.5189   0.5203   0.5261   0.5287
  0.5363   0.5371   0.5433   0.5462   0.5527   0.5549   0.5608   0.5681
  0.5749   0.5756   0.5880   0.5931   0.5943   0.5975   0.6137   0.6199
  0.6231   0.6259   0.6272   0.6349   0.6378   0.6406   0.6470   0.6558
  0.6602   0.6683   0.6735   0.6751   0.6775   0.6951   0.6990   0.7290
  0.7302   0.7408   0.7452   0.7490   0.7618   0.7676   0.7687   0.7779
  0.7794   0.7915   0.7941   0.8020   0.8064   0.8277   0.8366   0.8457
  0.8535   0.8641   0.8652   0.8711   0.8880   0.8922   0.9106   0.9132
  0.9191   0.9386   0.9426   0.9509   0.9523   0.9707   0.9732   0.9814
  0.9843   0.9956   0.9981   1.0029   1.0097   1.0191   1.0280   1.0339
  1.0396   1.0451   1.0614   1.0823   1.0859   1.1034   1.1058   1.1180
  1.1232   1.1296   1.1373   1.1416   1.1596   1.1626   1.1803   1.1821
  1.1967   1.1980   1.2008   1.2145   1.2247   1.2349   1.2406   1.2516
  1.2707   1.2801   1.2838   1.3081   1.3170   1.3183   1.3251   1.3478
  1.3587   1.3656   1.3733   1.4035   1.4126   1.4162   1.4288   1.4477
  1.4703   1.4766   1.4823   1.4870   1.4919   1.5076   1.5081   1.5395
  1.5421   1.5553   1.5639   1.5730   1.5758   1.5787   1.5817   1.6036
  1.6043   1.6161   1.6284   1.6350   1.6376   1.6414   1.6485   1.6562
  1.6636   1.6687   1.6759   1.6803   1.6973   1.6989   1.7023   1.7246
  1.7300   1.7392   1.7510   1.7544   1.7599   1.7638   1.7894   1.7922
  1.7993   1.8088   1.8099   1.8192   1.8312   1.8374   1.8397   1.8586
  1.8659   1.8862   1.8937   1.9133   1.9242   1.9355   1.9505   1.9561
  1.9595   1.9735   1.9836   1.9929   2.0017   2.0087   2.0109   2.0243
  2.0331   2.0524   2.0547   2.0615   2.0787   2.0810   2.0888   2.0967
  2.0973   2.1053   2.1207   2.1283   2.1472   2.1551   2.1572   2.1693
  2.1788   2.1835   2.1867   2.2054   2.2064   2.2244   2.2305   2.2338
  2.2435   2.2478   2.2578   2.2712   2.2732   2.2904   2.2965   2.3257
  2.3285   2.3360   2.3394   2.3547   2.3683   2.3854   2.3860   2.3912
  2.4011   2.4035   2.4311   2.4427   2.4584   2.4629   2.4702   2.4834
  2.4994   2.5167   2.5209   2.5345   2.5427   2.5502   2.5622   2.5751
  2.5759   2.6044   2.6068   2.6150   2.6293   2.6309   2.6385   2.6640
  2.6787   2.6931   2.7025   2.7146   2.7163   2.7235   2.7311   2.7485
  2.7569   2.7624   2.7752   2.7832   2.7978   2.8136   2.8177   2.8310
  2.8370   2.8387   2.8469   2.8668   2.8714   2.8885   2.9027   2.9140
  2.9168   2.9211   2.9293   2.9473   2.9567   2.9603   2.9680   2.9722
  2.9963   3.0269   3.0279   3.0442   3.0618   3.0692   3.0759   3.0783
  3.0927   3.0947   3.1065   3.1121   3.1150   3.1310   3.1405   3.1424
  3.1508   3.1544   3.1620   3.1656   3.1777   3.1850   3.1856   3.1959
  3.2018   3.2083   3.2207   3.2230   3.2302   3.2475   3.2583   3.2622
  3.2724   3.2837   3.2926   3.3080   3.3130   3.3163   3.3275   3.3496
  3.3603   3.3666   3.3749   3.3906   3.3935   3.4057   3.4142   3.4157
  3.4186   3.4207   3.4275   3.4338   3.4370   3.4450   3.4525   3.4728
  3.4746   3.4852   3.4880   3.4933   3.5003   3.5060   3.5137   3.5254
  3.5271   3.5434   3.5569   3.5611   3.5853   3.5935   3.5988   3.6116
  3.6122   3.6202   3.6231   3.6321   3.6354   3.6418   3.6446   3.6510
  3.6585   3.6848   3.6891   3.7085   3.7118   3.7210   3.7366   3.7595
  3.7676   3.7826   3.7861   3.8193   3.8254   3.8465   3.8700   3.8813
  3.8836   3.9035   3.9244   3.9520   3.9866   4.0016   4.0082   4.0114
  4.0205   4.0279   4.0333   4.0460   4.0580   4.0843   4.0879   4.0943
  4.1210   4.1367   4.1421   4.1456   4.1591   4.1767   4.2106   4.2134
  4.2484   4.3180   4.3505   4.3896   4.4150   4.4233   4.4507   4.4702
  4.4728   4.4820   4.5319   4.5439   4.5655   4.5692   4.5848   4.5982
  4.6214   4.6528   4.6558   4.6573   4.6906   4.6934   4.7098   4.7580
  4.7863   4.8629   4.8716   4.8768   4.8870   4.9352   4.9674   5.0156
  5.1641   5.1866   5.2122   5.2211   5.2528   5.2605   5.2612   5.2631
  5.2642   5.2775   5.2788   5.2828   5.2878   5.2893   5.2924   5.2957
  5.2991   5.3006   5.3032   5.3112   5.3657   5.3828   5.3859   5.4146
  5.4211   5.4291   5.4574   5.4805   5.4898   5.4984   5.5247   5.5401
  5.5478   5.5626   5.5931   5.6236   5.6390   5.6401   5.6465   5.6504
  5.6544   5.6594   5.6634   5.6721   5.7408   5.7450   5.7470   5.7482
  5.7936   5.8253   5.8573   5.8653   5.9366   5.9551   5.9587   5.9632
  6.0178   6.0396   6.1550   6.1594   6.1675   6.1756   6.1997   6.2003
  6.2129   6.2153   6.2600   6.2626   6.2673   6.2721   6.4428   6.4589
  6.4634   6.4657   6.4786   6.4814   6.4871   6.4876   6.5590   6.5623
  6.5626   6.5677   6.5717   6.5921   6.5998   6.6066   6.6397   6.6650
  6.6686   6.6836   6.8648   6.8685   6.8758   6.8759   6.8876   6.8888
  6.9065   6.9131   6.9648   6.9663   6.9757   6.9835   7.0674   7.0727
  7.0853   7.0860   7.2335   7.2420   7.2497   7.2533   7.2668   7.2682
  7.2747   7.2750   7.3077   7.3126   7.3172   7.3186  22.6570  22.6981
 22.7050  22.7437  22.7702  22.7738  23.5967  23.6027  23.6197  23.6226
 32.9389  32.9722  44.0090  44.0111  44.0515  44.0559  44.0615  44.0993
 44.1202  44.1482
 --------------------------------------------------------------

          Ground-State Mulliken Net Atomic Charges

     Atom                 Charge (a.u.)
  ----------------------------------------
      1 Ca                    2.000000
      2 O                    -0.801307
      3 C                     0.427489
      4 O                    -0.623907
      5 C                    -0.163025
      6 H                     0.142414
      7 H                     0.176626
      8 N                    -0.515457
      9 C                    -0.173605
     10 H                     0.165831
     11 H                     0.144375
     12 C                    -0.119259
     13 H                     0.161686
     14 H                     0.148821
     15 C                    -0.113542
     16 H                     0.162437
     17 H                     0.148163
     18 N                    -0.514832
     19 C                    -0.175757
     20 H                     0.167079
     21 H                     0.144838
     22 C                    -0.161323
     23 H                     0.176125
     24 H                     0.140709
     25 C                     0.427773
     26 O                    -0.623403
     27 O                    -0.801298
     28 C                     0.455483
     29 O                    -0.623493
     30 O                    -0.805715
     31 C                     0.455133
     32 O                    -0.623110
     33 O                    -0.805950
  ----------------------------------------
  Sum of atomic charges =    -2.000000

 -----------------------------------------------------------------
                    Cartesian Multipole Moments
 -----------------------------------------------------------------
    Charge (ESU x 10^10)
                -9.6064
    Dipole Moment (Debye)
         X      -0.3822      Y       0.3421      Z      -0.0137
       Tot       0.5131
    Quadrupole Moments (Debye-Ang)
        XX    -181.5997     XY     -48.2615     YY    -194.0698
        XZ      25.7898     YZ     -11.0118     ZZ    -219.8746
    Octopole Moments (Debye-Ang^2)
       XXX    -327.3672    XXY     129.7856    XYY    -145.8999
       YYY     271.6746    XXZ       0.6485    XYZ     -40.5347
       YYZ      16.6530    XZZ    -222.4380    YZZ     177.0905
       ZZZ    -253.6052
    Hexadecapole Moments (Debye-Ang^3)
      XXXX   -3298.6299   XXXY    -749.7641   XXYY   -1603.8467
      XYYY    -838.0353   YYYY   -3864.5859   XXXZ     118.2776
      XXYZ     -28.3005   XYYZ     204.1506   YYYZ     -83.1125
      XXZZ   -1040.7904   XYZZ      53.4667   YYZZ   -1097.8945
      XZZZ     -34.6094   YZZZ    -292.4452   ZZZZ   -3783.6595
 -----------------------------------------------------------------
Archival summary:
1\1\osmium\SP\ProcedureUnspecified\BasisUnspecified\a1821012(2-,1)\eric\ThuFeb2501:29:412021ThuFeb2501:29:412021\0\\#,ProcedureUnspecified,BasisUnspecified,\\-2,1\Ca\O,1,2.32004\C,2,1.26574,1,121.588\O,3,1.24436,2,124.792,1,-172.896,0\C,3,1.53057,2,118.057,1,10.5331,0\H,5,1.09352,3,104.514,2,93.7681,0\H,5,1.09471,3,109.042,2,-152.574,0\N,5,1.46425,3,116.029,2,-26.1862,0\C,8,1.4586,5,111.273,3,140.585,0\H,9,1.09282,8,108.832,5,165.356,0\H,9,1.09542,8,112.484,5,46.8,0\C,8,1.46739,5,112.168,3,-92.4701,0\H,12,1.09065,8,108.229,5,-164.948,0\H,12,1.0977,8,111.027,5,-48.0396,0\C,12,1.51947,8,112.446,5,73.7656,0\H,15,1.09065,12,109.564,8,-58.3189,0\H,15,1.09769,12,108.493,8,-174.465,0\N,15,1.46718,12,112.557,8,62.1576,0\C,18,1.45817,15,112.639,12,-158.517,0\H,19,1.09293,18,108.847,15,38.8368,0\H,19,1.09569,18,112.435,15,-79.7118,0\C,18,1.46306,15,112.287,12,74.9518,0\H,22,1.09339,18,108.919,15,151.742,0\H,22,1.09495,18,111.258,15,34.5885,0\C,22,1.53043,18,116.022,15,-90.8491,0\O,25,1.24421,22,117.106,18,156.861,0\O,25,1.26597,22,118.003,18,-26.4351,0\C,9,1.53287,8,113.408,5,-77.4982,0\O,28,1.24367,9,117.271,8,157.343,0\O,28,1.26765,9,117.868,8,-25.1531,0\C,19,1.53337,18,113.382,15,156.022,0\O,31,1.24357,19,117.191,18,157.871,0\O,31,1.26773,19,117.951,18,-24.6815,0\\\@

 Total job time:  4233.43s(wall), 14764.06s(cpu) 
 Thu Feb 25 01:29:41 2021

        *************************************************************
        *                                                           *
        *  Thank you very much for using Q-Chem.  Have a nice day.  *
        *                                                           *
        *************************************************************


