
    -----------------------------------------------------------------------
          Psi4: An Open-Source Ab Initio Electronic Structure Package
                               Psi4 1.3.2 release

                         Git: Rev {HEAD} ecbda83 


    R. M. Parrish, L. A. Burns, D. G. A. Smith, A. C. Simmonett,
    A. E. DePrince III, E. G. Hohenstein, U. Bozkaya, A. Yu. Sokolov,
    R. Di Remigio, R. M. Richard, J. F. Gonthier, A. M. James,
    H. R. McAlexander, A. Kumar, M. Saitow, X. Wang, B. P. Pritchard,
    P. Verma, H. F. Schaefer III, K. Patkowski, R. A. King, E. F. Valeev,
    F. A. Evangelista, J. M. Turney, T. D. Crawford, and C. D. Sherrill,
    J. Chem. Theory Comput. 13(7) pp 3185--3197 (2017).
    (doi: 10.1021/acs.jctc.7b00174)


                         Additional Contributions by
    P. Kraus, H. Kruse, M. H. Lechner, M. C. Schieber, R. A. Shaw,
    A. Alenaizan, R. Galvelis, Z. L. Glick, S. Lehtola, and J. P. Misiewicz

    -----------------------------------------------------------------------


    Psi4 started on: Sunday, 20 December 2020 12:11PM

    Process ID: 2855981
    Host:       osmium
    PSIDATADIR: /home/eric/.pyenv/versions/miniconda3-4.7.12/envs/cclib_berquist_37/share/psi4
    Memory:     500.0 MiB
    Threads:    12
    
  ==> Input File <==

--------------------------------------------------------------------------
molecule {
2 1
Ca        0.0568200754   -0.0340507487   -0.0241536722
--
-4 1
O        -0.0266333451   -0.0060214852    2.2942122857
C         1.0269754008    0.0129202493    2.9953916923
O         1.0573624107   -0.0977604490    4.2344439888
C         2.3596241929    0.2639608226    2.2856921716
H         3.1635561425   -0.2111629614    2.8569573893
H         2.5145038971    1.3433782314    2.3673182739
N         2.4176607442   -0.1187484848    0.8735315702
C         3.1674825911    0.8574762557    0.0910602416
H         3.4115669762    0.4189662405   -0.8797092364
H         4.1141373734    1.1370271339    0.5660796192
C         2.9173296471   -1.4862563181    0.6905601916
H         3.1891485562   -1.6127156332   -0.3580773736
H         3.8298079155   -1.6539823787    1.2772437380
C         1.8913877356   -2.5361434014    1.0829434647
H         1.6046453206   -2.3947792303    2.1256885698
H         2.3625700878   -3.5253335239    1.0164534456
N         0.6780693593   -2.4724222800    0.2604912448
C        -0.4722615912   -3.0916450357    0.9082307927
H        -0.4477093347   -2.8532230990    1.9745531057
H        -0.4633957757   -4.1838387038    0.8212005629
C         0.8878857548   -3.0171302831   -1.0810810247
H        -0.0606039110   -3.4111916099   -1.4560322841
H         1.5894218509   -3.8576305915   -1.0630492552
C         1.3341105049   -2.0166103716   -2.1497508729
O         1.9332069908   -2.4739861861   -3.1396755917
O         1.0142557700   -0.8013057071   -1.9967400321
C         2.3705987271    2.1291552057   -0.2211942199
O         3.0186263330    3.1575254362   -0.4842999709
O         1.1058168025    2.0461479272   -0.2403311654
C        -1.8170416944   -2.5600853818    0.3980975935
O        -2.8133043262   -3.2867204036    0.5591204716
O        -1.8429917341   -1.3986316291   -0.1093428981

units angstrom
no_reorient
symmetry c1
}

set {
    basis def2-tzvp
}

energy("sapt0-ct")
--------------------------------------------------------------------------

  //>>>>>>>>>>>>>>>>>>>>>>>>>>>>>>>>>>>//
  //              Dimer HF             //
  //<<<<<<<<<<<<<<<<<<<<<<<<<<<<<<<<<<<//


*** tstart() called on osmium
*** at Sun Dec 20 12:11:35 2020

   => Loading Basis Set <=

    Name: DEF2-TZVP
    Role: ORBITAL
    Keyword: BASIS
    atoms 1                                      entry CA         line   664 file /home/eric/.pyenv/versions/miniconda3-4.7.12/envs/cclib_berquist_37/share/psi4/basis/def2-tzvp.gbs 
    atoms 2, 4, 26-27, 29-30, 32-33              entry O          line   189 file /home/eric/.pyenv/versions/miniconda3-4.7.12/envs/cclib_berquist_37/share/psi4/basis/def2-tzvp.gbs 
    atoms 3, 5, 9, 12, 15, 19, 22, 25, 28, 31    entry C          line   123 file /home/eric/.pyenv/versions/miniconda3-4.7.12/envs/cclib_berquist_37/share/psi4/basis/def2-tzvp.gbs 
    atoms 6-7, 10-11, 13-14, 16-17, 20-21, 23-24 entry H          line    15 file /home/eric/.pyenv/versions/miniconda3-4.7.12/envs/cclib_berquist_37/share/psi4/basis/def2-tzvp.gbs 
    atoms 8, 18                                  entry N          line   156 file /home/eric/.pyenv/versions/miniconda3-4.7.12/envs/cclib_berquist_37/share/psi4/basis/def2-tzvp.gbs 


         ---------------------------------------------------------
                                   SCF
               by Justin Turney, Rob Parrish, Andy Simmonett
                          and Daniel G. A. Smith
                              RHF Reference
                       12 Threads,    500 MiB Core
         ---------------------------------------------------------

  ==> Geometry <==

    Molecular point group: c1
    Full point group: C1

    Geometry (in Angstrom), charge = -2, multiplicity = 1:

       Center              X                  Y                   Z               Mass       
    ------------   -----------------  -----------------  -----------------  -----------------
         CA          -0.826471945550     0.702796832599    -0.335436099905    39.962590863000
         O           -0.909925366050     0.730826096099     1.982929857995    15.994914619570
         C            0.143683379850     0.749767830599     2.684109264595    12.000000000000
         O            0.174070389750     0.639087132299     3.923161561095    15.994914619570
         C            1.476332171950     1.000808403899     1.974409743895    12.000000000000
         H            2.280264121550     0.525684619899     2.545674961595     1.007825032230
         H            1.631211876150     2.080225812699     2.056035846195     1.007825032230
         N            1.534368723250     0.618099096499     0.562249142495    14.003074004430
         C            2.284190570150     1.594323836999    -0.220222186105    12.000000000000
         H            2.528274955250     1.155813821799    -1.190991664105     1.007825032230
         H            3.230845352450     1.873874715199     0.254797191495     1.007825032230
         C            2.034037626150    -0.749408736801     0.379277763895    12.000000000000
         H            2.305856535250    -0.875868051901    -0.669359801305     1.007825032230
         H            2.946515894550    -0.917134797401     0.965961310295     1.007825032230
         C            1.008095714650    -1.799295820101     0.771661036995    12.000000000000
         H            0.721353299650    -1.657931649001     1.814406142095     1.007825032230
         H            1.479278066850    -2.788485942601     0.705171017895     1.007825032230
         N           -0.205222661650    -1.735574698701    -0.050791182905    14.003074004430
         C           -1.355553612150    -2.354797454401     0.596948364995    12.000000000000
         H           -1.331001355650    -2.116375517701     1.663270677995     1.007825032230
         H           -1.346687796650    -3.446991122501     0.509918135195     1.007825032230
         C            0.004593733850    -2.280282701801    -1.392363452405    12.000000000000
         H           -0.943895931950    -2.674344028601    -1.767314711805     1.007825032230
         H            0.706129829950    -3.120783010201    -1.374331682905     1.007825032230
         C            0.450818483950    -1.279762790301    -2.461033300605    12.000000000000
         O            1.049914969850    -1.737138604801    -3.450958019405    15.994914619570
         O            0.130963749050    -0.064458125801    -2.308022459805    15.994914619570
         C            1.487306706150     2.866002786999    -0.532476647605    12.000000000000
         O            2.135334312050     3.894373017499    -0.795582398605    15.994914619570
         O            0.222524781550     2.782995508499    -0.551613593105    15.994914619570
         C           -2.700333715350    -1.823237800501     0.086815165795    12.000000000000
         O           -3.696596347150    -2.549872822301     0.247838043895    15.994914619570
         O           -2.726283755050    -0.661784047801    -0.420625325805    15.994914619570

  Running in c1 symmetry.

  Rotational constants: A =      0.01249  B =      0.00909  C =      0.00722 [cm^-1]
  Rotational constants: A =    374.55036  B =    272.38707  C =    216.47460 [MHz]
  Nuclear repulsion = 2185.068605379399742

  Charge       = -2
  Multiplicity = 1
  Electrons    = 172
  Nalpha       = 86
  Nbeta        = 86

  ==> Algorithm <==

  SCF Algorithm Type is DF.
  DIIS enabled.
  MOM disabled.
  Fractional occupation disabled.
  Guess Type is SAD.
  Energy threshold   = 1.00e-08
  Density threshold  = 1.00e-08
  Integral threshold = 0.00e+00

  ==> Primary Basis <==

  Basis Set: DEF2-TZVP
    Blend: DEF2-TZVP
    Number of shells: 282
    Number of basis function: 728
    Number of Cartesian functions: 831
    Spherical Harmonics?: true
    Max angular momentum: 3

   => Loading Basis Set <=

    Name: (DEF2-TZVP AUX)
    Role: JKFIT
    Keyword: DF_BASIS_SCF
    atoms 1                                      entry CA         line  1255 file /home/eric/.pyenv/versions/miniconda3-4.7.12/envs/cclib_berquist_37/share/psi4/basis/def2-tzvp-jkfit.gbs 
    atoms 2, 4, 26-27, 29-30, 32-33              entry O          line   323 file /home/eric/.pyenv/versions/miniconda3-4.7.12/envs/cclib_berquist_37/share/psi4/basis/def2-tzvp-jkfit.gbs 
    atoms 3, 5, 9, 12, 15, 19, 22, 25, 28, 31    entry C          line   203 file /home/eric/.pyenv/versions/miniconda3-4.7.12/envs/cclib_berquist_37/share/psi4/basis/def2-tzvp-jkfit.gbs 
    atoms 6-7, 10-11, 13-14, 16-17, 20-21, 23-24 entry H          line    23 file /home/eric/.pyenv/versions/miniconda3-4.7.12/envs/cclib_berquist_37/share/psi4/basis/def2-tzvp-jkfit.gbs 
    atoms 8, 18                                  entry N          line   263 file /home/eric/.pyenv/versions/miniconda3-4.7.12/envs/cclib_berquist_37/share/psi4/basis/def2-tzvp-jkfit.gbs 

  ==> Pre-Iterations <==

   -------------------------------------------------------
    Irrep   Nso     Nmo     Nalpha   Nbeta   Ndocc  Nsocc
   -------------------------------------------------------
     A        728     728       0       0       0       0
   -------------------------------------------------------
    Total     728     728      86      86      86       0
   -------------------------------------------------------

  ==> Integral Setup <==

  ==> DiskDFJK: Density-Fitted J/K Matrices <==

    J tasked:                  Yes
    K tasked:                  Yes
    wK tasked:                  No
    OpenMP threads:             12
    Integrals threads:          12
    Memory [MiB]:              375
    Algorithm:                Disk
    Integral Cache:           SAVE
    Schwarz Cutoff:          1E-12
    Fitting Condition:       1E-10

   => Auxiliary Basis Set <=

  Basis Set: (DEF2-TZVP AUX)
    Blend: DEF2-TZVP-JKFIT
    Number of shells: 616
    Number of basis function: 1896
    Number of Cartesian functions: 2263
    Spherical Harmonics?: true
    Max angular momentum: 4

  Minimum eigenvalue in the overlap matrix is 7.5155357387E-05.
  Using Symmetric Orthogonalization.

  SCF Guess: Superposition of Atomic Densities via on-the-fly atomic UHF.

  ==> Iterations <==

                           Total Energy        Delta E     RMS |[F,P]|

   @DF-RHF iter SAD: -1769.17972337106630   -1.76918e+03   0.00000e+00 
   @DF-RHF iter   1: -1770.14739818198746   -9.67675e-01   1.85375e-03 DIIS
   @DF-RHF iter   2: -1770.68312758220691   -5.35729e-01   1.21113e-03 DIIS
   @DF-RHF iter   3: -1770.93881530226213   -2.55688e-01   1.45167e-04 DIIS
   @DF-RHF iter   4: -1770.94651297502992   -7.69767e-03   5.61518e-05 DIIS
   @DF-RHF iter   5: -1770.94748839402860   -9.75419e-04   1.45310e-05 DIIS
   @DF-RHF iter   6: -1770.94755558692032   -6.71929e-05   6.03397e-06 DIIS
   @DF-RHF iter   7: -1770.94756816857353   -1.25817e-05   1.68075e-06 DIIS
   @DF-RHF iter   8: -1770.94756952257558   -1.35400e-06   6.14019e-07 DIIS
   @DF-RHF iter   9: -1770.94756973398830   -2.11413e-07   2.86456e-07 DIIS
   @DF-RHF iter  10: -1770.94756979252656   -5.85383e-08   9.69945e-08 DIIS
   @DF-RHF iter  11: -1770.94756980084344   -8.31687e-09   2.86003e-08 DIIS
   @DF-RHF iter  12: -1770.94756980140733   -5.63887e-10   8.43302e-09 DIIS
  Energy and wave function converged.


  ==> Post-Iterations <==

    Orbital Energies [Eh]
    ---------------------

    Doubly Occupied:                                                      

       1A   -149.001541     2A    -20.274082     3A    -20.273367  
       4A    -20.270749     5A    -20.270432     6A    -20.265469  
       7A    -20.264860     8A    -20.260627     9A    -20.260139  
      10A    -16.458602    11A    -15.366784    12A    -15.366566  
      13A    -13.267216    14A    -13.266932    15A    -13.266830  
      16A    -11.112688    17A    -11.112180    18A    -11.109131  
      19A    -11.108803    20A    -11.070197    21A    -11.069523  
      22A    -11.051074    23A    -11.050918    24A    -11.046817  
      25A    -11.046427    26A     -1.890747    27A     -1.158489  
      28A     -1.157367    29A     -1.153355    30A     -1.150997  
      31A     -1.063131    32A     -1.057897    33A     -1.055015  
      34A     -1.047876    35A     -1.044263    36A     -1.030921  
      37A     -0.995384    38A     -0.985167    39A     -0.983028  
      40A     -0.836531    41A     -0.782853    42A     -0.780683  
      43A     -0.729905    44A     -0.668244    45A     -0.610109  
      46A     -0.526597    47A     -0.513379    48A     -0.510957  
      49A     -0.504589    50A     -0.485857    51A     -0.466042  
      52A     -0.450427    53A     -0.441780    54A     -0.434929  
      55A     -0.422434    56A     -0.404365    57A     -0.400766  
      58A     -0.399808    59A     -0.384128    60A     -0.380626  
      61A     -0.379718    62A     -0.368251    63A     -0.364267  
      64A     -0.360502    65A     -0.351314    66A     -0.346784  
      67A     -0.340722    68A     -0.315621    69A     -0.301699  
      70A     -0.300451    71A     -0.297937    72A     -0.282001  
      73A     -0.213239    74A     -0.208585    75A     -0.206227  
      76A     -0.202560    77A     -0.195797    78A     -0.194028  
      79A     -0.182937    80A     -0.181408    81A     -0.180229  
      82A     -0.178961    83A     -0.175359    84A     -0.174707  
      85A     -0.169117    86A     -0.168244  

    Virtual:                                                              

      87A      0.252218    88A      0.288206    89A      0.289085  
      90A      0.300852    91A      0.343906    92A      0.344993  
      93A      0.371655    94A      0.374842    95A      0.389798  
      96A      0.393719    97A      0.395686    98A      0.403272  
      99A      0.405282   100A      0.416662   101A      0.420363  
     102A      0.426786   103A      0.444250   104A      0.446115  
     105A      0.455656   106A      0.465481   107A      0.466834  
     108A      0.470181   109A      0.481795   110A      0.486281  
     111A      0.492252   112A      0.495698   113A      0.503631  
     114A      0.514660   115A      0.516194   116A      0.529639  
     117A      0.534786   118A      0.536621   119A      0.541287  
     120A      0.548049   121A      0.565409   122A      0.570751  
     123A      0.585697   124A      0.590544   125A      0.595211  
     126A      0.596229   127A      0.603414   128A      0.619954  
     129A      0.620214   130A      0.630144   131A      0.644382  
     132A      0.650890   133A      0.652779   134A      0.654036  
     135A      0.661409   136A      0.666026   137A      0.670208  
     138A      0.673735   139A      0.674988   140A      0.688403  
     141A      0.691773   142A      0.696223   143A      0.697538  
     144A      0.704388   145A      0.711718   146A      0.717986  
     147A      0.723323   148A      0.738518   149A      0.740936  
     150A      0.745887   151A      0.749968   152A      0.751385  
     153A      0.764107   154A      0.774084   155A      0.779083  
     156A      0.780736   157A      0.786692   158A      0.787443  
     159A      0.792976   160A      0.796079   161A      0.802378  
     162A      0.806252   163A      0.810352   164A      0.817865  
     165A      0.826618   166A      0.830412   167A      0.840703  
     168A      0.844557   169A      0.849878   170A      0.860723  
     171A      0.861640   172A      0.869643   173A      0.872786  
     174A      0.880102   175A      0.885856   176A      0.892498  
     177A      0.899746   178A      0.913633   179A      0.914647  
     180A      0.921260   181A      0.929629   182A      0.936632  
     183A      0.956406   184A      0.958455   185A      0.959396  
     186A      0.969312   187A      0.981376   188A      0.986637  
     189A      0.988867   190A      0.990560   191A      1.001502  
     192A      1.002748   193A      1.004725   194A      1.010111  
     195A      1.020924   196A      1.032233   197A      1.036657  
     198A      1.050287   199A      1.056469   200A      1.058197  
     201A      1.071719   202A      1.080715   203A      1.088889  
     204A      1.098398   205A      1.100716   206A      1.113839  
     207A      1.125279   208A      1.136172   209A      1.137701  
     210A      1.140002   211A      1.140821   212A      1.165072  
     213A      1.167064   214A      1.179314   215A      1.189398  
     216A      1.207014   217A      1.213725   218A      1.216028  
     219A      1.227379   220A      1.227544   221A      1.248875  
     222A      1.259447   223A      1.266340   224A      1.267860  
     225A      1.274676   226A      1.294666   227A      1.302410  
     228A      1.304715   229A      1.315340   230A      1.325689  
     231A      1.334363   232A      1.345501   233A      1.348743  
     234A      1.353976   235A      1.365432   236A      1.367350  
     237A      1.374602   238A      1.380874   239A      1.383295  
     240A      1.392211   241A      1.409880   242A      1.421835  
     243A      1.435103   244A      1.441057   245A      1.455856  
     246A      1.473509   247A      1.475248   248A      1.490204  
     249A      1.493331   250A      1.501368   251A      1.520931  
     252A      1.524987   253A      1.540868   254A      1.543101  
     255A      1.550130   256A      1.564249   257A      1.573231  
     258A      1.583012   259A      1.591653   260A      1.594858  
     261A      1.597445   262A      1.616855   263A      1.621864  
     264A      1.644236   265A      1.659759   266A      1.669485  
     267A      1.686728   268A      1.689753   269A      1.691342  
     270A      1.698302   271A      1.728989   272A      1.730142  
     273A      1.748734   274A      1.779743   275A      1.792465  
     276A      1.795683   277A      1.815978   278A      1.845398  
     279A      1.859813   280A      1.865084   281A      1.866940  
     282A      1.892127   283A      1.894031   284A      1.896947  
     285A      1.911294   286A      1.939261   287A      1.942069  
     288A      1.959327   289A      1.960089   290A      1.960625  
     291A      1.966334   292A      1.971728   293A      1.988637  
     294A      2.001864   295A      2.002763   296A      2.017023  
     297A      2.019486   298A      2.044111   299A      2.048234  
     300A      2.049071   301A      2.057983   302A      2.059934  
     303A      2.066107   304A      2.068897   305A      2.090021  
     306A      2.093202   307A      2.103914   308A      2.108914  
     309A      2.118798   310A      2.128112   311A      2.132963  
     312A      2.145368   313A      2.152085   314A      2.166311  
     315A      2.168831   316A      2.179074   317A      2.201282  
     318A      2.208633   319A      2.213917   320A      2.217300  
     321A      2.226394   322A      2.236733   323A      2.241409  
     324A      2.252689   325A      2.256263   326A      2.268015  
     327A      2.270915   328A      2.296384   329A      2.312373  
     330A      2.316727   331A      2.333990   332A      2.355118  
     333A      2.358709   334A      2.373542   335A      2.393673  
     336A      2.396075   337A      2.400846   338A      2.419854  
     339A      2.423341   340A      2.425287   341A      2.428181  
     342A      2.444986   343A      2.450434   344A      2.470060  
     345A      2.486673   346A      2.493146   347A      2.497124  
     348A      2.501101   349A      2.515161   350A      2.524690  
     351A      2.531188   352A      2.545119   353A      2.560560  
     354A      2.563849   355A      2.576302   356A      2.588763  
     357A      2.594422   358A      2.600084   359A      2.604437  
     360A      2.613083   361A      2.623253   362A      2.643832  
     363A      2.646933   364A      2.656051   365A      2.669069  
     366A      2.674672   367A      2.686189   368A      2.696301  
     369A      2.697649   370A      2.718776   371A      2.723734  
     372A      2.731757   373A      2.746187   374A      2.778321  
     375A      2.784967   376A      2.793496   377A      2.796490  
     378A      2.811155   379A      2.814020   380A      2.824068  
     381A      2.841378   382A      2.843745   383A      2.846114  
     384A      2.853965   385A      2.872004   386A      2.894264  
     387A      2.906887   388A      2.912118   389A      2.916422  
     390A      2.931409   391A      2.932857   392A      2.952384  
     393A      2.956122   394A      2.975856   395A      2.985959  
     396A      2.989822   397A      2.992728   398A      3.009034  
     399A      3.020873   400A      3.053594   401A      3.054461  
     402A      3.072963   403A      3.077565   404A      3.080664  
     405A      3.100252   406A      3.109575   407A      3.119602  
     408A      3.139301   409A      3.143128   410A      3.149368  
     411A      3.162749   412A      3.174388   413A      3.186154  
     414A      3.191976   415A      3.200215   416A      3.204555  
     417A      3.210700   418A      3.230151   419A      3.239553  
     420A      3.255868   421A      3.269205   422A      3.275255  
     423A      3.276483   424A      3.295018   425A      3.297523  
     426A      3.304925   427A      3.310220   428A      3.342572  
     429A      3.353125   430A      3.368681   431A      3.404169  
     432A      3.417592   433A      3.419393   434A      3.440244  
     435A      3.451834   436A      3.467500   437A      3.470763  
     438A      3.479144   439A      3.490517   440A      3.502665  
     441A      3.506190   442A      3.508630   443A      3.535503  
     444A      3.541485   445A      3.551319   446A      3.556648  
     447A      3.565549   448A      3.571361   449A      3.578656  
     450A      3.591832   451A      3.608662   452A      3.613286  
     453A      3.617191   454A      3.622509   455A      3.641553  
     456A      3.643107   457A      3.650284   458A      3.655013  
     459A      3.658050   460A      3.662860   461A      3.673462  
     462A      3.678606   463A      3.685555   464A      3.696854  
     465A      3.702185   466A      3.708765   467A      3.727637  
     468A      3.733946   469A      3.736066   470A      3.751068  
     471A      3.755708   472A      3.761711   473A      3.775874  
     474A      3.780821   475A      3.784372   476A      3.802929  
     477A      3.818557   478A      3.824660   479A      3.840897  
     480A      3.843255   481A      3.852860   482A      3.868450  
     483A      3.871778   484A      3.892647   485A      3.896765  
     486A      3.898835   487A      3.902634   488A      3.915243  
     489A      3.917354   490A      3.928076   491A      3.932853  
     492A      3.933462   493A      3.950732   494A      3.955428  
     495A      3.964175   496A      3.966161   497A      3.975335  
     498A      3.991841   499A      3.999092   500A      4.014264  
     501A      4.014469   502A      4.026623   503A      4.030709  
     504A      4.042987   505A      4.054046   506A      4.054928  
     507A      4.077972   508A      4.090938   509A      4.101160  
     510A      4.106573   511A      4.109374   512A      4.120739  
     513A      4.127137   514A      4.128315   515A      4.131922  
     516A      4.135390   517A      4.142825   518A      4.154794  
     519A      4.156434   520A      4.178733   521A      4.187502  
     522A      4.199736   523A      4.207110   524A      4.220670  
     525A      4.230430   526A      4.250051   527A      4.257262  
     528A      4.265359   529A      4.288353   530A      4.300287  
     531A      4.302036   532A      4.324256   533A      4.339173  
     534A      4.360568   535A      4.367232   536A      4.378727  
     537A      4.400528   538A      4.431292   539A      4.458052  
     540A      4.480753   541A      4.483887   542A      4.489880  
     543A      4.502816   544A      4.504335   545A      4.514945  
     546A      4.521988   547A      4.557821   548A      4.570900  
     549A      4.575272   550A      4.585180   551A      4.616219  
     552A      4.626135   553A      4.629508   554A      4.638694  
     555A      4.650960   556A      4.680013   557A      4.706139  
     558A      4.716107   559A      4.752563   560A      4.815301  
     561A      4.850882   562A      4.872149   563A      4.892440  
     564A      4.918606   565A      4.980627   566A      5.009737  
     567A      5.011147   568A      5.021742   569A      5.029737  
     570A      5.053211   571A      5.078046   572A      5.079950  
     573A      5.103421   574A      5.105948   575A      5.124350  
     576A      5.161868   577A      5.185810   578A      5.207796  
     579A      5.246444   580A      5.250032   581A      5.255279  
     582A      5.275219   583A      5.319758   584A      5.370944  
     585A      5.380003   586A      5.393216   587A      5.398479  
     588A      5.434733   589A      5.487669   590A      5.534483  
     591A      5.701432   592A      5.724874   593A      5.748303  
     594A      5.751319   595A      5.840319   596A      5.858821  
     597A      5.867397   598A      5.872478   599A      5.875257  
     600A      5.879554   601A      5.883523   602A      5.890299  
     603A      5.894518   604A      5.898524   605A      5.903276  
     606A      5.905148   607A      5.908945   608A      5.911014  
     609A      5.917580   610A      5.919446   611A      5.938534  
     612A      5.942454   613A      5.944940   614A      5.986302  
     615A      6.004613   616A      6.014611   617A      6.029117  
     618A      6.046718   619A      6.064455   620A      6.065936  
     621A      6.072109   622A      6.093934   623A      6.096205  
     624A      6.112199   625A      6.139390   626A      6.181620  
     627A      6.253631   628A      6.253644   629A      6.258476  
     630A      6.258797   631A      6.271799   632A      6.278780  
     633A      6.281439   634A      6.281582   635A      6.346649  
     636A      6.360739   637A      6.364906   638A      6.365764  
     639A      6.374159   640A      6.386106   641A      6.428554  
     642A      6.431997   643A      6.547560   644A      6.548538  
     645A      6.569714   646A      6.580009   647A      6.586126  
     648A      6.602249   649A      6.786491   650A      6.790335  
     651A      6.796015   652A      6.804608   653A      6.840742  
     654A      6.842260   655A      6.850576   656A      6.852614  
     657A      6.899132   658A      6.903317   659A      6.907478  
     660A      6.908506   661A      7.123740   662A      7.134872  
     663A      7.138326   664A      7.140719   665A      7.141603  
     666A      7.145310   667A      7.146463   668A      7.151209  
     669A      7.243618   670A      7.245600   671A      7.251318  
     672A      7.252206   673A      7.258434   674A      7.272043  
     675A      7.277548   676A      7.285073   677A      7.324029  
     678A      7.346592   679A      7.349727   680A      7.367692  
     681A      7.544267   682A      7.547388   683A      7.551975  
     684A      7.552463   685A      7.566875   686A      7.568208  
     687A      7.581534   688A      7.588589   689A      7.642327  
     690A      7.642769   691A      7.648385   692A      7.656808  
     693A      7.759874   694A      7.763037   695A      7.773894  
     696A      7.776728   697A      7.918738   698A      7.926816  
     699A      7.934870   700A      7.935853   701A      7.939005  
     702A      7.939670   703A      7.941839   704A      7.944257  
     705A      7.978303   706A      7.984389   707A      7.985421  
     708A      7.986690   709A     23.852068   710A     23.888243  
     711A     23.901078   712A     23.939718   713A     23.957372  
     714A     23.961132   715A     24.827050   716A     24.834720  
     717A     24.850517   718A     24.851879   719A     34.381711  
     720A     34.415495   721A     45.740715   722A     45.743721  
     723A     45.780187   724A     45.784922   725A     45.791639  
     726A     45.830825   727A     45.848213   728A     45.876892  

    Final Occupation by Irrep:
              A 
    DOCC [    86 ]

  @DF-RHF Final Energy: -1770.94756980140733

   => Energetics <=

    Nuclear Repulsion Energy =           2185.0686053793997417
    One-Electron Energy =               -6827.1098223119679460
    Two-Electron Energy =                2871.0936471311606510
    Total Energy =                      -1770.9475698014075533

Computation Completed


Properties will be evaluated at   0.000000,   0.000000,   0.000000 [a0]

Properties computed using the SCF density matrix

  Nuclear Dipole Moment: [e a0]
     X:    13.2692      Y:   -11.1716      Z:     5.1486

  Electronic Dipole Moment: [e a0]
     X:   -11.0360      Y:     9.3152      Z:    -4.3300

  Dipole Moment: [e a0]
     X:     2.2332      Y:    -1.8564      Z:     0.8186     Total:     3.0172

  Dipole Moment: [D]
     X:     5.6762      Y:    -4.7186      Z:     2.0806     Total:     7.6690


*** tstop() called on osmium at Sun Dec 20 12:12:58 2020
Module time:
	user time   =     908.60 seconds =      15.14 minutes
	system time =      57.99 seconds =       0.97 minutes
	total time  =         83 seconds =       1.38 minutes
Total time:
	user time   =     908.60 seconds =      15.14 minutes
	system time =      57.99 seconds =       0.97 minutes
	total time  =         83 seconds =       1.38 minutes

  //>>>>>>>>>>>>>>>>>>>>>>>>>>>>>>>>>>>//
  //     Monomer A HF (Dimer Basis)    //
  //<<<<<<<<<<<<<<<<<<<<<<<<<<<<<<<<<<<//


*** tstart() called on osmium
*** at Sun Dec 20 12:12:58 2020

   => Loading Basis Set <=

    Name: DEF2-TZVP
    Role: ORBITAL
    Keyword: BASIS
    atoms 1                                      entry CA         line   664 file /home/eric/.pyenv/versions/miniconda3-4.7.12/envs/cclib_berquist_37/share/psi4/basis/def2-tzvp.gbs 
    atoms 2, 4, 26-27, 29-30, 32-33              entry O          line   189 file /home/eric/.pyenv/versions/miniconda3-4.7.12/envs/cclib_berquist_37/share/psi4/basis/def2-tzvp.gbs 
    atoms 3, 5, 9, 12, 15, 19, 22, 25, 28, 31    entry C          line   123 file /home/eric/.pyenv/versions/miniconda3-4.7.12/envs/cclib_berquist_37/share/psi4/basis/def2-tzvp.gbs 
    atoms 6-7, 10-11, 13-14, 16-17, 20-21, 23-24 entry H          line    15 file /home/eric/.pyenv/versions/miniconda3-4.7.12/envs/cclib_berquist_37/share/psi4/basis/def2-tzvp.gbs 
    atoms 8, 18                                  entry N          line   156 file /home/eric/.pyenv/versions/miniconda3-4.7.12/envs/cclib_berquist_37/share/psi4/basis/def2-tzvp.gbs 


         ---------------------------------------------------------
                                   SCF
               by Justin Turney, Rob Parrish, Andy Simmonett
                          and Daniel G. A. Smith
                              RHF Reference
                       12 Threads,    500 MiB Core
         ---------------------------------------------------------

  ==> Geometry <==

    Molecular point group: c1
    Full point group: C1

    Geometry (in Angstrom), charge = 2, multiplicity = 1:

       Center              X                  Y                   Z               Mass       
    ------------   -----------------  -----------------  -----------------  -----------------
         CA          -0.826471945550     0.702796832599    -0.335436099905    39.962590863000
      Gh(O)          -0.909925366050     0.730826096099     1.982929857995    15.994914619570
      Gh(C)           0.143683379850     0.749767830599     2.684109264595    12.000000000000
      Gh(O)           0.174070389750     0.639087132299     3.923161561095    15.994914619570
      Gh(C)           1.476332171950     1.000808403899     1.974409743895    12.000000000000
      Gh(H)           2.280264121550     0.525684619899     2.545674961595     1.007825032230
      Gh(H)           1.631211876150     2.080225812699     2.056035846195     1.007825032230
      Gh(N)           1.534368723250     0.618099096499     0.562249142495    14.003074004430
      Gh(C)           2.284190570150     1.594323836999    -0.220222186105    12.000000000000
      Gh(H)           2.528274955250     1.155813821799    -1.190991664105     1.007825032230
      Gh(H)           3.230845352450     1.873874715199     0.254797191495     1.007825032230
      Gh(C)           2.034037626150    -0.749408736801     0.379277763895    12.000000000000
      Gh(H)           2.305856535250    -0.875868051901    -0.669359801305     1.007825032230
      Gh(H)           2.946515894550    -0.917134797401     0.965961310295     1.007825032230
      Gh(C)           1.008095714650    -1.799295820101     0.771661036995    12.000000000000
      Gh(H)           0.721353299650    -1.657931649001     1.814406142095     1.007825032230
      Gh(H)           1.479278066850    -2.788485942601     0.705171017895     1.007825032230
      Gh(N)          -0.205222661650    -1.735574698701    -0.050791182905    14.003074004430
      Gh(C)          -1.355553612150    -2.354797454401     0.596948364995    12.000000000000
      Gh(H)          -1.331001355650    -2.116375517701     1.663270677995     1.007825032230
      Gh(H)          -1.346687796650    -3.446991122501     0.509918135195     1.007825032230
      Gh(C)           0.004593733850    -2.280282701801    -1.392363452405    12.000000000000
      Gh(H)          -0.943895931950    -2.674344028601    -1.767314711805     1.007825032230
      Gh(H)           0.706129829950    -3.120783010201    -1.374331682905     1.007825032230
      Gh(C)           0.450818483950    -1.279762790301    -2.461033300605    12.000000000000
      Gh(O)           1.049914969850    -1.737138604801    -3.450958019405    15.994914619570
      Gh(O)           0.130963749050    -0.064458125801    -2.308022459805    15.994914619570
      Gh(C)           1.487306706150     2.866002786999    -0.532476647605    12.000000000000
      Gh(O)           2.135334312050     3.894373017499    -0.795582398605    15.994914619570
      Gh(O)           0.222524781550     2.782995508499    -0.551613593105    15.994914619570
      Gh(C)          -2.700333715350    -1.823237800501     0.086815165795    12.000000000000
      Gh(O)          -3.696596347150    -2.549872822301     0.247838043895    15.994914619570
      Gh(O)          -2.726283755050    -0.661784047801    -0.420625325805    15.994914619570

  Running in c1 symmetry.

  Rotational constants: A =      0.01249  B =      0.00909  C =      0.00722 [cm^-1]
  Rotational constants: A =    374.55036  B =    272.38707  C =    216.47460 [MHz]
  Nuclear repulsion =    0.000000000000000

  Charge       = 2
  Multiplicity = 1
  Electrons    = 18
  Nalpha       = 9
  Nbeta        = 9

  ==> Algorithm <==

  SCF Algorithm Type is DF.
  DIIS enabled.
  MOM disabled.
  Fractional occupation disabled.
  Guess Type is SAD.
  Energy threshold   = 1.00e-08
  Density threshold  = 1.00e-08
  Integral threshold = 0.00e+00

  ==> Primary Basis <==

  Basis Set: DEF2-TZVP
    Blend: DEF2-TZVP
    Number of shells: 282
    Number of basis function: 728
    Number of Cartesian functions: 831
    Spherical Harmonics?: true
    Max angular momentum: 3

   => Loading Basis Set <=

    Name: (DEF2-TZVP AUX)
    Role: JKFIT
    Keyword: DF_BASIS_SCF
    atoms 1                                      entry CA         line  1255 file /home/eric/.pyenv/versions/miniconda3-4.7.12/envs/cclib_berquist_37/share/psi4/basis/def2-tzvp-jkfit.gbs 
    atoms 2, 4, 26-27, 29-30, 32-33              entry O          line   323 file /home/eric/.pyenv/versions/miniconda3-4.7.12/envs/cclib_berquist_37/share/psi4/basis/def2-tzvp-jkfit.gbs 
    atoms 3, 5, 9, 12, 15, 19, 22, 25, 28, 31    entry C          line   203 file /home/eric/.pyenv/versions/miniconda3-4.7.12/envs/cclib_berquist_37/share/psi4/basis/def2-tzvp-jkfit.gbs 
    atoms 6-7, 10-11, 13-14, 16-17, 20-21, 23-24 entry H          line    23 file /home/eric/.pyenv/versions/miniconda3-4.7.12/envs/cclib_berquist_37/share/psi4/basis/def2-tzvp-jkfit.gbs 
    atoms 8, 18                                  entry N          line   263 file /home/eric/.pyenv/versions/miniconda3-4.7.12/envs/cclib_berquist_37/share/psi4/basis/def2-tzvp-jkfit.gbs 

  ==> Pre-Iterations <==

   -------------------------------------------------------
    Irrep   Nso     Nmo     Nalpha   Nbeta   Ndocc  Nsocc
   -------------------------------------------------------
     A        728     728       0       0       0       0
   -------------------------------------------------------
    Total     728     728       9       9       9       0
   -------------------------------------------------------

  ==> Integral Setup <==

  ==> DiskDFJK: Density-Fitted J/K Matrices <==

    J tasked:                  Yes
    K tasked:                  Yes
    wK tasked:                  No
    OpenMP threads:             12
    Integrals threads:          12
    Memory [MiB]:              375
    Algorithm:                Disk
    Integral Cache:           LOAD
    Schwarz Cutoff:          1E-12
    Fitting Condition:       1E-10

   => Auxiliary Basis Set <=

  Basis Set: (DEF2-TZVP AUX)
    Blend: DEF2-TZVP-JKFIT
    Number of shells: 616
    Number of basis function: 1896
    Number of Cartesian functions: 2263
    Spherical Harmonics?: true
    Max angular momentum: 4

  Minimum eigenvalue in the overlap matrix is 7.5155357387E-05.
  Using Symmetric Orthogonalization.

  SCF Guess: Superposition of Atomic Densities via on-the-fly atomic UHF.

  ==> Iterations <==

                           Total Energy        Delta E     RMS |[F,P]|

   @DF-RHF iter SAD:  -676.37027016040599   -6.76370e+02   0.00000e+00 
   @DF-RHF iter   1:  -676.14084644304864    2.29424e-01   7.26321e-05 DIIS
   @DF-RHF iter   2:  -676.14224288339426   -1.39644e-03   1.35869e-05 DIIS
   @DF-RHF iter   3:  -676.14226861645693   -2.57331e-05   1.45266e-06 DIIS
   @DF-RHF iter   4:  -676.14226922859882   -6.12142e-07   1.07754e-07 DIIS
   @DF-RHF iter   5:  -676.14226923187141   -3.27259e-09   4.92869e-09 DIIS
  Energy and wave function converged.


  ==> Post-Iterations <==

    Orbital Energies [Eh]
    ---------------------

    Doubly Occupied:                                                      

       1A   -149.917913     2A    -17.369541     3A    -14.178776  
       4A    -14.178767     5A    -14.178741     6A     -2.777980  
       7A     -1.876821     8A     -1.876810     9A     -1.876800  

    Virtual:                                                              

      10A     -0.415040    11A     -0.325343    12A     -0.324851  
      13A     -0.324614    14A     -0.324414    15A     -0.324059  
      16A     -0.309115    17A     -0.309091    18A     -0.309056  
      19A     -0.188504    20A     -0.157901    21A     -0.156597  
      22A     -0.152624    23A     -0.152305    24A     -0.146615  
      25A     -0.145004    26A     -0.144458    27A     -0.142256  
      28A     -0.103644    29A     -0.095012    30A     -0.089165  
      31A     -0.084967    32A     -0.083617    33A     -0.071642  
      34A     -0.070954    35A     -0.022920    36A     -0.021829  
      37A     -0.015578    38A     -0.014818    39A     -0.009362  
      40A      0.000055    41A      0.004841    42A      0.006874  
      43A      0.009920    44A      0.013251    45A      0.019833  
      46A      0.020625    47A      0.025973    48A      0.029335  
      49A      0.034208    50A      0.040737    51A      0.058252  
      52A      0.070370    53A      0.079754    54A      0.087149  
      55A      0.087923    56A      0.101554    57A      0.108194  
      58A      0.113744    59A      0.118793    60A      0.126457  
      61A      0.128305    62A      0.132417    63A      0.151675  
      64A      0.158094    65A      0.166628    66A      0.171608  
      67A      0.173761    68A      0.181056    69A      0.186028  
      70A      0.186306    71A      0.190111    72A      0.199868  
      73A      0.208601    74A      0.224073    75A      0.225506  
      76A      0.226255    77A      0.239953    78A      0.246147  
      79A      0.251723    80A      0.260568    81A      0.262475  
      82A      0.269505    83A      0.272305    84A      0.277375  
      85A      0.281344    86A      0.286729    87A      0.298442  
      88A      0.299956    89A      0.309522    90A      0.312599  
      91A      0.328496    92A      0.337743    93A      0.343679  
      94A      0.352889    95A      0.356354    96A      0.358470  
      97A      0.363716    98A      0.364945    99A      0.375338  
     100A      0.391292   101A      0.402786   102A      0.403690  
     103A      0.411912   104A      0.414844   105A      0.421868  
     106A      0.426768   107A      0.433992   108A      0.439995  
     109A      0.446045   110A      0.458215   111A      0.462950  
     112A      0.465735   113A      0.469243   114A      0.485308  
     115A      0.488122   116A      0.506130   117A      0.511946  
     118A      0.519215   119A      0.531915   120A      0.534084  
     121A      0.543435   122A      0.564335   123A      0.572586  
     124A      0.579417   125A      0.593377   126A      0.604180  
     127A      0.608048   128A      0.632549   129A      0.642372  
     130A      0.647943   131A      0.671887   132A      0.673035  
     133A      0.697746   134A      0.709714   135A      0.716746  
     136A      0.720878   137A      0.731031   138A      0.747295  
     139A      0.754892   140A      0.767247   141A      0.779552  
     142A      0.781073   143A      0.784444   144A      0.788592  
     145A      0.806361   146A      0.808789   147A      0.815533  
     148A      0.829521   149A      0.839259   150A      0.844482  
     151A      0.849124   152A      0.859787   153A      0.860803  
     154A      0.862565   155A      0.875472   156A      0.880030  
     157A      0.894071   158A      0.916030   159A      0.929586  
     160A      0.942364   161A      0.944801   162A      0.959145  
     163A      0.972454   164A      0.981856   165A      0.984368  
     166A      0.993439   167A      1.007912   168A      1.015214  
     169A      1.025315   170A      1.028283   171A      1.030240  
     172A      1.045245   173A      1.048449   174A      1.052644  
     175A      1.069370   176A      1.069941   177A      1.076662  
     178A      1.080407   179A      1.085299   180A      1.098497  
     181A      1.108199   182A      1.114182   183A      1.118150  
     184A      1.120621   185A      1.138736   186A      1.144523  
     187A      1.145831   188A      1.156870   189A      1.174247  
     190A      1.182875   191A      1.191710   192A      1.202612  
     193A      1.208026   194A      1.230280   195A      1.233738  
     196A      1.239151   197A      1.245252   198A      1.248476  
     199A      1.251031   200A      1.266819   201A      1.277016  
     202A      1.284921   203A      1.286086   204A      1.290039  
     205A      1.296251   206A      1.322964   207A      1.326610  
     208A      1.350381   209A      1.364155   210A      1.370014  
     211A      1.374670   212A      1.379706   213A      1.391371  
     214A      1.397452   215A      1.406582   216A      1.408126  
     217A      1.425923   218A      1.439233   219A      1.444993  
     220A      1.462439   221A      1.463123   222A      1.481078  
     223A      1.492732   224A      1.504945   225A      1.513660  
     226A      1.531081   227A      1.544286   228A      1.549369  
     229A      1.561599   230A      1.580750   231A      1.581850  
     232A      1.590822   233A      1.606248   234A      1.611280  
     235A      1.622043   236A      1.624291   237A      1.625769  
     238A      1.646984   239A      1.648449   240A      1.662423  
     241A      1.680671   242A      1.704175   243A      1.720675  
     244A      1.728144   245A      1.746151   246A      1.764737  
     247A      1.775323   248A      1.781718   249A      1.790519  
     250A      1.801223   251A      1.807971   252A      1.818310  
     253A      1.832693   254A      1.840196   255A      1.843705  
     256A      1.856500   257A      1.869457   258A      1.874770  
     259A      1.886512   260A      1.891242   261A      1.915404  
     262A      1.921786   263A      1.924514   264A      1.932340  
     265A      1.944289   266A      1.949846   267A      1.952245  
     268A      1.972395   269A      1.978905   270A      1.992034  
     271A      2.011047   272A      2.023369   273A      2.029665  
     274A      2.031328   275A      2.040492   276A      2.054481  
     277A      2.065131   278A      2.073557   279A      2.075491  
     280A      2.082565   281A      2.086573   282A      2.104024  
     283A      2.112200   284A      2.119865   285A      2.165260  
     286A      2.182408   287A      2.183975   288A      2.199951  
     289A      2.200875   290A      2.205626   291A      2.224961  
     292A      2.233935   293A      2.273397   294A      2.286368  
     295A      2.293389   296A      2.310082   297A      2.329489  
     298A      2.339440   299A      2.347033   300A      2.351950  
     301A      2.370295   302A      2.373393   303A      2.387493  
     304A      2.388469   305A      2.392848   306A      2.402195  
     307A      2.414714   308A      2.426038   309A      2.435326  
     310A      2.449379   311A      2.473763   312A      2.487163  
     313A      2.508766   314A      2.531486   315A      2.534421  
     316A      2.542014   317A      2.570164   318A      2.574125  
     319A      2.589287   320A      2.593468   321A      2.614772  
     322A      2.617966   323A      2.635155   324A      2.640627  
     325A      2.647286   326A      2.665452   327A      2.679105  
     328A      2.686776   329A      2.698719   330A      2.716255  
     331A      2.728026   332A      2.741270   333A      2.782439  
     334A      2.807790   335A      2.814592   336A      2.817440  
     337A      2.836733   338A      2.842119   339A      2.859135  
     340A      2.871849   341A      2.888758   342A      2.889455  
     343A      2.894841   344A      2.918089   345A      2.952230  
     346A      2.952649   347A      2.969900   348A      2.973205  
     349A      2.978941   350A      3.010204   351A      3.029855  
     352A      3.035210   353A      3.067556   354A      3.074852  
     355A      3.122030   356A      3.130796   357A      3.136656  
     358A      3.159566   359A      3.161659   360A      3.201730  
     361A      3.204230   362A      3.212624   363A      3.221721  
     364A      3.225092   365A      3.266776   366A      3.286969  
     367A      3.293926   368A      3.302607   369A      3.305842  
     370A      3.320983   371A      3.337149   372A      3.354744  
     373A      3.388059   374A      3.399363   375A      3.441710  
     376A      3.460547   377A      3.469589   378A      3.477110  
     379A      3.487975   380A      3.503844   381A      3.506312  
     382A      3.511361   383A      3.545546   384A      3.572837  
     385A      3.595207   386A      3.637864   387A      3.652621  
     388A      3.670390   389A      3.676791   390A      3.701942  
     391A      3.718352   392A      3.736268   393A      3.742861  
     394A      3.765856   395A      3.775154   396A      3.788216  
     397A      3.820041   398A      3.827117   399A      3.829123  
     400A      3.849420   401A      3.853032   402A      3.884279  
     403A      3.889855   404A      3.903460   405A      3.912387  
     406A      3.929766   407A      3.932351   408A      3.937793  
     409A      3.958455   410A      3.960222   411A      3.966326  
     412A      3.991405   413A      3.992404   414A      4.007221  
     415A      4.018566   416A      4.036081   417A      4.044195  
     418A      4.055601   419A      4.057937   420A      4.068918  
     421A      4.092441   422A      4.099798   423A      4.119672  
     424A      4.132906   425A      4.133882   426A      4.145885  
     427A      4.158288   428A      4.162736   429A      4.174751  
     430A      4.187749   431A      4.192302   432A      4.203379  
     433A      4.219276   434A      4.234052   435A      4.238608  
     436A      4.275602   437A      4.284835   438A      4.289919  
     439A      4.294563   440A      4.300682   441A      4.300944  
     442A      4.318277   443A      4.333945   444A      4.347379  
     445A      4.349773   446A      4.368016   447A      4.373048  
     448A      4.379755   449A      4.381501   450A      4.391004  
     451A      4.400707   452A      4.403674   453A      4.435215  
     454A      4.440421   455A      4.460124   456A      4.477132  
     457A      4.477971   458A      4.482894   459A      4.496209  
     460A      4.496383   461A      4.506512   462A      4.526147  
     463A      4.535637   464A      4.560396   465A      4.608178  
     466A      4.608519   467A      4.626182   468A      4.633280  
     469A      4.638918   470A      4.642384   471A      4.653913  
     472A      4.699786   473A      4.703107   474A      4.733785  
     475A      4.735830   476A      4.762207   477A      4.767223  
     478A      4.783733   479A      4.785647   480A      4.827917  
     481A      4.845968   482A      4.853724   483A      4.884812  
     484A      4.919526   485A      4.946000   486A      4.957152  
     487A      4.966207   488A      5.011077   489A      5.018581  
     490A      5.055639   491A      5.081340   492A      5.096072  
     493A      5.097430   494A      5.104096   495A      5.138829  
     496A      5.172925   497A      5.185302   498A      5.190449  
     499A      5.216802   500A      5.253833   501A      5.267006  
     502A      5.303473   503A      5.305182   504A      5.332900  
     505A      5.335921   506A      5.351521   507A      5.354488  
     508A      5.371661   509A      5.382716   510A      5.397957  
     511A      5.425035   512A      5.485760   513A      5.566921  
     514A      5.572323   515A      5.598904   516A      5.604167  
     517A      5.656447   518A      5.674254   519A      5.692452  
     520A      5.700596   521A      5.708112   522A      5.717929  
     523A      5.724260   524A      5.750744   525A      5.761344  
     526A      5.808232   527A      5.832540   528A      5.848328  
     529A      5.884696   530A      5.891280   531A      5.932985  
     532A      5.959351   533A      5.984747   534A      5.998585  
     535A      6.015822   536A      6.018735   537A      6.021420  
     538A      6.027370   539A      6.033278   540A      6.036329  
     541A      6.043303   542A      6.048920   543A      6.066063  
     544A      6.098168   545A      6.145330   546A      6.175330  
     547A      6.199198   548A      6.201748   549A      6.205004  
     550A      6.205443   551A      6.226575   552A      6.229401  
     553A      6.235264   554A      6.245181   555A      6.260608  
     556A      6.263024   557A      6.278846   558A      6.297649  
     559A      6.312694   560A      6.352120   561A      6.363540  
     562A      6.374660   563A      6.383406   564A      6.394824  
     565A      6.437781   566A      6.453087   567A      6.469809  
     568A      6.474217   569A      6.495374   570A      6.504680  
     571A      6.509109   572A      6.537236   573A      6.578467  
     574A      6.579954   575A      6.645366   576A      6.647679  
     577A      6.650844   578A      6.653260   579A      6.727366  
     580A      6.758368   581A      6.762521   582A      6.766844  
     583A      6.819609   584A      6.821562   585A      7.055986  
     586A      7.060710   587A      7.064861   588A      7.067449  
     589A      7.081936   590A      7.102829   591A      7.147611  
     592A      7.174501   593A      7.179028   594A      7.222469  
     595A      7.224207   596A      7.230796   597A      7.248563  
     598A      7.255799   599A      7.430953   600A      7.438322  
     601A      7.450384   602A      7.451149   603A      7.499623  
     604A      7.517538   605A      7.519955   606A      7.526063  
     607A      7.562708   608A      7.569185   609A      7.623075  
     610A      7.635245   611A      7.776466   612A      7.810904  
     613A      7.888975   614A      7.894900   615A      7.901089  
     616A      7.904471   617A      8.127157   618A      8.127693  
     619A      8.134084   620A      8.142003   621A      8.607428  
     622A      8.633420   623A      8.659566   624A      8.663938  
     625A      8.717303   626A      8.742475   627A      8.757146  
     628A      8.800385   629A      8.815690   630A      8.817857  
     631A      8.845366   632A      8.865905   633A      8.877080  
     634A      8.892227   635A      8.911430   636A      8.923958  
     637A      8.968968   638A      8.978337   639A      8.990418  
     640A      8.996473   641A      9.040152   642A      9.069329  
     643A      9.086152   644A      9.094408   645A      9.109508  
     646A      9.138603   647A      9.160465   648A      9.180400  
     649A      9.192230   650A      9.208371   651A      9.210877  
     652A      9.217052   653A      9.229284   654A      9.230998  
     655A      9.237003   656A      9.244505   657A      9.324857  
     658A      9.326668   659A      9.342647   660A      9.349516  
     661A      9.451385   662A      9.454175   663A      9.468393  
     664A      9.470535   665A      9.471808   666A      9.472839  
     667A      9.482022   668A      9.483125   669A      9.654941  
     670A      9.658411   671A      9.664539   672A      9.666067  
     673A      9.692377   674A      9.702224   675A      9.704104  
     676A      9.713639   677A      9.985169   678A      9.990411  
     679A     10.001183   680A     10.001274   681A     10.167657  
     682A     10.189643   683A     10.230802   684A     10.236310  
     685A     10.243228   686A     10.270925   687A     10.331396  
     688A     10.335923   689A     10.344161   690A     10.345223  
     691A     10.675945   692A     10.687909   693A     10.700861  
     694A     10.715414   695A     11.850929   696A     11.866529  
     697A     11.880399   698A     11.887298   699A     14.412959  
     700A     14.433675   701A     18.882356   702A     18.897585  
     703A     18.917684   704A     18.927165   705A     19.066740  
     706A     19.079370   707A     19.094956   708A     19.097119  
     709A     65.854400   710A     65.898058   711A     65.910767  
     712A     65.949191   713A     65.981200   714A     65.984587  
     715A     66.878536   716A     66.888120   717A     66.908204  
     718A     66.910806   719A     94.170702   720A     94.203456  
     721A    126.315514   722A    126.349757   723A    126.377073  
     724A    126.389993   725A    126.465007   726A    126.486726  
     727A    126.509922   728A    126.515543  

    Final Occupation by Irrep:
              A 
    DOCC [     9 ]

  @DF-RHF Final Energy:  -676.14226923187141

   => Energetics <=

    Nuclear Repulsion Energy =              0.0000000000000000
    One-Electron Energy =                -915.8202432224321683
    Two-Electron Energy =                 239.6779739905607016
    Total Energy =                       -676.1422692318715235

Computation Completed


Properties will be evaluated at   0.000000,   0.000000,   0.000000 [a0]

Properties computed using the SCF density matrix

  Nuclear Dipole Moment: [e a0]
     X:   -31.2361      Y:    26.5619      Z:   -12.6776

  Electronic Dipole Moment: [e a0]
     X:    28.1125      Y:   -23.9057      Z:    11.4099

  Dipole Moment: [e a0]
     X:    -3.1236      Y:     2.6561      Z:    -1.2677     Total:     4.2917

  Dipole Moment: [D]
     X:    -7.9393      Y:     6.7512      Z:    -3.2223     Total:    10.9085


*** tstop() called on osmium at Sun Dec 20 12:13:18 2020
Module time:
	user time   =     204.00 seconds =       3.40 minutes
	system time =      19.73 seconds =       0.33 minutes
	total time  =         20 seconds =       0.33 minutes
Total time:
	user time   =    1112.62 seconds =      18.54 minutes
	system time =      77.73 seconds =       1.30 minutes
	total time  =        103 seconds =       1.72 minutes

  //>>>>>>>>>>>>>>>>>>>>>>>>>>>>>>>>>>>//
  //     Monomer B HF (Dimer Basis)    //
  //<<<<<<<<<<<<<<<<<<<<<<<<<<<<<<<<<<<//


*** tstart() called on osmium
*** at Sun Dec 20 12:13:18 2020

   => Loading Basis Set <=

    Name: DEF2-TZVP
    Role: ORBITAL
    Keyword: BASIS
    atoms 1                                      entry CA         line   664 file /home/eric/.pyenv/versions/miniconda3-4.7.12/envs/cclib_berquist_37/share/psi4/basis/def2-tzvp.gbs 
    atoms 2, 4, 26-27, 29-30, 32-33              entry O          line   189 file /home/eric/.pyenv/versions/miniconda3-4.7.12/envs/cclib_berquist_37/share/psi4/basis/def2-tzvp.gbs 
    atoms 3, 5, 9, 12, 15, 19, 22, 25, 28, 31    entry C          line   123 file /home/eric/.pyenv/versions/miniconda3-4.7.12/envs/cclib_berquist_37/share/psi4/basis/def2-tzvp.gbs 
    atoms 6-7, 10-11, 13-14, 16-17, 20-21, 23-24 entry H          line    15 file /home/eric/.pyenv/versions/miniconda3-4.7.12/envs/cclib_berquist_37/share/psi4/basis/def2-tzvp.gbs 
    atoms 8, 18                                  entry N          line   156 file /home/eric/.pyenv/versions/miniconda3-4.7.12/envs/cclib_berquist_37/share/psi4/basis/def2-tzvp.gbs 


         ---------------------------------------------------------
                                   SCF
               by Justin Turney, Rob Parrish, Andy Simmonett
                          and Daniel G. A. Smith
                              RHF Reference
                       12 Threads,    500 MiB Core
         ---------------------------------------------------------

  ==> Geometry <==

    Molecular point group: c1
    Full point group: C1

    Geometry (in Angstrom), charge = -4, multiplicity = 1:

       Center              X                  Y                   Z               Mass       
    ------------   -----------------  -----------------  -----------------  -----------------
      Gh(CA)         -0.826471945550     0.702796832599    -0.335436099905    39.962590863000
         O           -0.909925366050     0.730826096099     1.982929857995    15.994914619570
         C            0.143683379850     0.749767830599     2.684109264595    12.000000000000
         O            0.174070389750     0.639087132299     3.923161561095    15.994914619570
         C            1.476332171950     1.000808403899     1.974409743895    12.000000000000
         H            2.280264121550     0.525684619899     2.545674961595     1.007825032230
         H            1.631211876150     2.080225812699     2.056035846195     1.007825032230
         N            1.534368723250     0.618099096499     0.562249142495    14.003074004430
         C            2.284190570150     1.594323836999    -0.220222186105    12.000000000000
         H            2.528274955250     1.155813821799    -1.190991664105     1.007825032230
         H            3.230845352450     1.873874715199     0.254797191495     1.007825032230
         C            2.034037626150    -0.749408736801     0.379277763895    12.000000000000
         H            2.305856535250    -0.875868051901    -0.669359801305     1.007825032230
         H            2.946515894550    -0.917134797401     0.965961310295     1.007825032230
         C            1.008095714650    -1.799295820101     0.771661036995    12.000000000000
         H            0.721353299650    -1.657931649001     1.814406142095     1.007825032230
         H            1.479278066850    -2.788485942601     0.705171017895     1.007825032230
         N           -0.205222661650    -1.735574698701    -0.050791182905    14.003074004430
         C           -1.355553612150    -2.354797454401     0.596948364995    12.000000000000
         H           -1.331001355650    -2.116375517701     1.663270677995     1.007825032230
         H           -1.346687796650    -3.446991122501     0.509918135195     1.007825032230
         C            0.004593733850    -2.280282701801    -1.392363452405    12.000000000000
         H           -0.943895931950    -2.674344028601    -1.767314711805     1.007825032230
         H            0.706129829950    -3.120783010201    -1.374331682905     1.007825032230
         C            0.450818483950    -1.279762790301    -2.461033300605    12.000000000000
         O            1.049914969850    -1.737138604801    -3.450958019405    15.994914619570
         O            0.130963749050    -0.064458125801    -2.308022459805    15.994914619570
         C            1.487306706150     2.866002786999    -0.532476647605    12.000000000000
         O            2.135334312050     3.894373017499    -0.795582398605    15.994914619570
         O            0.222524781550     2.782995508499    -0.551613593105    15.994914619570
         C           -2.700333715350    -1.823237800501     0.086815165795    12.000000000000
         O           -3.696596347150    -2.549872822301     0.247838043895    15.994914619570
         O           -2.726283755050    -0.661784047801    -0.420625325805    15.994914619570

  Running in c1 symmetry.

  Rotational constants: A =      0.01249  B =      0.00909  C =      0.00722 [cm^-1]
  Rotational constants: A =    374.55036  B =    272.38707  C =    216.47460 [MHz]
  Nuclear repulsion = 1674.528074874097683

  Charge       = -4
  Multiplicity = 1
  Electrons    = 154
  Nalpha       = 77
  Nbeta        = 77

  ==> Algorithm <==

  SCF Algorithm Type is DF.
  DIIS enabled.
  MOM disabled.
  Fractional occupation disabled.
  Guess Type is SAD.
  Energy threshold   = 1.00e-08
  Density threshold  = 1.00e-08
  Integral threshold = 0.00e+00

  ==> Primary Basis <==

  Basis Set: DEF2-TZVP
    Blend: DEF2-TZVP
    Number of shells: 282
    Number of basis function: 728
    Number of Cartesian functions: 831
    Spherical Harmonics?: true
    Max angular momentum: 3

   => Loading Basis Set <=

    Name: (DEF2-TZVP AUX)
    Role: JKFIT
    Keyword: DF_BASIS_SCF
    atoms 1                                      entry CA         line  1255 file /home/eric/.pyenv/versions/miniconda3-4.7.12/envs/cclib_berquist_37/share/psi4/basis/def2-tzvp-jkfit.gbs 
    atoms 2, 4, 26-27, 29-30, 32-33              entry O          line   323 file /home/eric/.pyenv/versions/miniconda3-4.7.12/envs/cclib_berquist_37/share/psi4/basis/def2-tzvp-jkfit.gbs 
    atoms 3, 5, 9, 12, 15, 19, 22, 25, 28, 31    entry C          line   203 file /home/eric/.pyenv/versions/miniconda3-4.7.12/envs/cclib_berquist_37/share/psi4/basis/def2-tzvp-jkfit.gbs 
    atoms 6-7, 10-11, 13-14, 16-17, 20-21, 23-24 entry H          line    23 file /home/eric/.pyenv/versions/miniconda3-4.7.12/envs/cclib_berquist_37/share/psi4/basis/def2-tzvp-jkfit.gbs 
    atoms 8, 18                                  entry N          line   263 file /home/eric/.pyenv/versions/miniconda3-4.7.12/envs/cclib_berquist_37/share/psi4/basis/def2-tzvp-jkfit.gbs 

  ==> Pre-Iterations <==

   -------------------------------------------------------
    Irrep   Nso     Nmo     Nalpha   Nbeta   Ndocc  Nsocc
   -------------------------------------------------------
     A        728     728       0       0       0       0
   -------------------------------------------------------
    Total     728     728      77      77      77       0
   -------------------------------------------------------

  ==> Integral Setup <==

  ==> DiskDFJK: Density-Fitted J/K Matrices <==

    J tasked:                  Yes
    K tasked:                  Yes
    wK tasked:                  No
    OpenMP threads:             12
    Integrals threads:          12
    Memory [MiB]:              375
    Algorithm:                Disk
    Integral Cache:           LOAD
    Schwarz Cutoff:          1E-12
    Fitting Condition:       1E-10

   => Auxiliary Basis Set <=

  Basis Set: (DEF2-TZVP AUX)
    Blend: DEF2-TZVP-JKFIT
    Number of shells: 616
    Number of basis function: 1896
    Number of Cartesian functions: 2263
    Spherical Harmonics?: true
    Max angular momentum: 4

  Minimum eigenvalue in the overlap matrix is 7.5155357387E-05.
  Using Symmetric Orthogonalization.

  SCF Guess: Superposition of Atomic Densities via on-the-fly atomic UHF.

  ==> Iterations <==

                           Total Energy        Delta E     RMS |[F,P]|

   @DF-RHF iter SAD: -1091.40115334902657   -1.09140e+03   0.00000e+00 
   @DF-RHF iter   1: -1092.42462967957249   -1.02348e+00   1.95576e-03 DIIS
   @DF-RHF iter   2: -1092.98824531198898   -5.63616e-01   1.40478e-03 DIIS
   @DF-RHF iter   3: -1093.35644812989972   -3.68203e-01   2.05652e-04 DIIS
   @DF-RHF iter   4: -1093.36687104406587   -1.04229e-02   1.03937e-04 DIIS
   @DF-RHF iter   5: -1093.36962534084478   -2.75430e-03   1.99145e-05 DIIS
   @DF-RHF iter   6: -1093.36976995871032   -1.44618e-04   7.17479e-06 DIIS
   @DF-RHF iter   7: -1093.36979384052165   -2.38818e-05   1.74151e-06 DIIS
   @DF-RHF iter   8: -1093.36979638734033   -2.54682e-06   7.04300e-07 DIIS
   @DF-RHF iter   9: -1093.36979676062379   -3.73283e-07   3.53090e-07 DIIS
   @DF-RHF iter  10: -1093.36979684844300   -8.78192e-08   1.20989e-07 DIIS
   @DF-RHF iter  11: -1093.36979686184554   -1.34025e-08   4.44044e-08 DIIS
   @DF-RHF iter  12: -1093.36979686300265   -1.15710e-09   1.56773e-08 DIIS
   @DF-RHF iter  13: -1093.36979686312156   -1.18916e-10   5.18556e-09 DIIS
  Energy and wave function converged.


  ==> Post-Iterations <==

    Orbital Energies [Eh]
    ---------------------

    Doubly Occupied:                                                      

       1A    -19.999111     2A    -19.998224     3A    -19.995818  
       4A    -19.995355     5A    -19.968212     6A    -19.967320  
       7A    -19.966081     8A    -19.965846     9A    -15.074666  
      10A    -15.074648    11A    -10.825986    12A    -10.825131  
      13A    -10.823906    14A    -10.823688    15A    -10.804813  
      16A    -10.804028    17A    -10.782561    18A    -10.782476  
      19A    -10.778181    20A    -10.777871    21A     -0.873166  
      22A     -0.872200    23A     -0.869031    24A     -0.868715  
      25A     -0.772645    26A     -0.756752    27A     -0.751299  
      28A     -0.750372    29A     -0.746791    30A     -0.736926  
      31A     -0.562966    32A     -0.506507    33A     -0.504448  
      34A     -0.455253    35A     -0.394139    36A     -0.338324  
      37A     -0.243388    38A     -0.231012    39A     -0.229836  
      40A     -0.224600    41A     -0.207752    42A     -0.180477  
      43A     -0.165008    44A     -0.155902    45A     -0.153091  
      46A     -0.139580    47A     -0.130198    48A     -0.124789  
      49A     -0.122286    50A     -0.098146    51A     -0.096926  
      52A     -0.094158    53A     -0.086097    54A     -0.081759  
      55A     -0.076312    56A     -0.070640    57A     -0.061757  
      58A     -0.058820    59A     -0.039274    60A     -0.024611  
      61A     -0.022604    62A     -0.020501    63A     -0.007948  
      64A      0.074163    65A      0.076536    66A      0.086269  
      67A      0.089672    68A      0.108023    69A      0.108356  
      70A      0.109854    71A      0.112851    72A      0.116287  
      73A      0.117793    74A      0.119122    75A      0.120079  
      76A      0.125935    77A      0.131618  

    Virtual:                                                              

      78A      0.468344    79A      0.503444    80A      0.512028  
      81A      0.514634    82A      0.564148    83A      0.565354  
      84A      0.599036    85A      0.600574    86A      0.618045  
      87A      0.619832    88A      0.639639    89A      0.641057  
      90A      0.661141    91A      0.664871    92A      0.678369  
      93A      0.693097    94A      0.698235    95A      0.705373  
      96A      0.719951    97A      0.721880    98A      0.728923  
      99A      0.739867   100A      0.746539   101A      0.749508  
     102A      0.758362   103A      0.762496   104A      0.763835  
     105A      0.765699   106A      0.779012   107A      0.788837  
     108A      0.804755   109A      0.805749   110A      0.831988  
     111A      0.838496   112A      0.839177   113A      0.841978  
     114A      0.852600   115A      0.853442   116A      0.861913  
     117A      0.869416   118A      0.884176   119A      0.889003  
     120A      0.894410   121A      0.906072   122A      0.913347  
     123A      0.915916   124A      0.920102   125A      0.927858  
     126A      0.934125   127A      0.943518   128A      0.951624  
     129A      0.953322   130A      0.961297   131A      0.969577  
     132A      0.970310   133A      0.984198   134A      0.986572  
     135A      0.996042   136A      1.006414   137A      1.007625  
     138A      1.012585   139A      1.015172   140A      1.027628  
     141A      1.031145   142A      1.036655   143A      1.038354  
     144A      1.047710   145A      1.049876   146A      1.051401  
     147A      1.057045   148A      1.061048   149A      1.070471  
     150A      1.080951   151A      1.088179   152A      1.095945  
     153A      1.098738   154A      1.102045   155A      1.107596  
     156A      1.123784   157A      1.125438   158A      1.128448  
     159A      1.129747   160A      1.145382   161A      1.148342  
     162A      1.159365   163A      1.161876   164A      1.169066  
     165A      1.172611   166A      1.177541   167A      1.192163  
     168A      1.194717   169A      1.213901   170A      1.216028  
     171A      1.231404   172A      1.233254   173A      1.239599  
     174A      1.247048   175A      1.252797   176A      1.262651  
     177A      1.263400   178A      1.266071   179A      1.274689  
     180A      1.277361   181A      1.278563   182A      1.290538  
     183A      1.302626   184A      1.315466   185A      1.321289  
     186A      1.326567   187A      1.342988   188A      1.351442  
     189A      1.356972   190A      1.376491   191A      1.377599  
     192A      1.387927   193A      1.388556   194A      1.391300  
     195A      1.413077   196A      1.416316   197A      1.423690  
     198A      1.432256   199A      1.435541   200A      1.453853  
     201A      1.462249   202A      1.475192   203A      1.479658  
     204A      1.481761   205A      1.504571   206A      1.506976  
     207A      1.516339   208A      1.528070   209A      1.530341  
     210A      1.536149   211A      1.541749   212A      1.553509  
     213A      1.568198   214A      1.575582   215A      1.582934  
     216A      1.584615   217A      1.594173   218A      1.596883  
     219A      1.611993   220A      1.616170   221A      1.625618  
     222A      1.636326   223A      1.636994   224A      1.642310  
     225A      1.653246   226A      1.663889   227A      1.666435  
     228A      1.694351   229A      1.707813   230A      1.713282  
     231A      1.725270   232A      1.737555   233A      1.744128  
     234A      1.748125   235A      1.751411   236A      1.769157  
     237A      1.771069   238A      1.790222   239A      1.798903  
     240A      1.814264   241A      1.817280   242A      1.827923  
     243A      1.832599   244A      1.836582   245A      1.843306  
     246A      1.852902   247A      1.859595   248A      1.872461  
     249A      1.882925   250A      1.885668   251A      1.902176  
     252A      1.922915   253A      1.932622   254A      1.941242  
     255A      1.950358   256A      1.956137   257A      1.969384  
     258A      1.991982   259A      1.993835   260A      2.003116  
     261A      2.033777   262A      2.034349   263A      2.042320  
     264A      2.048542   265A      2.063831   266A      2.075069  
     267A      2.129101   268A      2.129745   269A      2.131551  
     270A      2.139334   271A      2.145062   272A      2.150021  
     273A      2.156789   274A      2.170747   275A      2.210736  
     276A      2.214842   277A      2.219389   278A      2.221490  
     279A      2.240849   280A      2.244113   281A      2.248255  
     282A      2.255923   283A      2.275298   284A      2.280839  
     285A      2.304180   286A      2.311098   287A      2.314622  
     288A      2.323929   289A      2.329263   290A      2.334014  
     291A      2.345143   292A      2.350124   293A      2.362808  
     294A      2.364306   295A      2.368293   296A      2.390216  
     297A      2.392614   298A      2.394666   299A      2.412907  
     300A      2.418773   301A      2.424730   302A      2.427019  
     303A      2.433781   304A      2.438482   305A      2.452994  
     306A      2.470742   307A      2.478258   308A      2.483513  
     309A      2.494903   310A      2.504127   311A      2.521514  
     312A      2.539906   313A      2.540779   314A      2.544750  
     315A      2.568567   316A      2.575119   317A      2.584647  
     318A      2.611009   319A      2.630081   320A      2.642801  
     321A      2.648294   322A      2.663280   323A      2.669185  
     324A      2.681223   325A      2.682458   326A      2.684964  
     327A      2.701786   328A      2.714501   329A      2.718729  
     330A      2.724794   331A      2.732791   332A      2.754338  
     333A      2.765905   334A      2.769726   335A      2.774372  
     336A      2.784222   337A      2.789531   338A      2.805844  
     339A      2.825082   340A      2.830992   341A      2.837468  
     342A      2.854859   343A      2.855250   344A      2.868991  
     345A      2.875639   346A      2.879802   347A      2.890045  
     348A      2.901865   349A      2.909407   350A      2.925732  
     351A      2.931214   352A      2.943426   353A      2.958437  
     354A      2.963768   355A      2.973606   356A      2.977287  
     357A      2.998228   358A      3.005784   359A      3.018035  
     360A      3.026401   361A      3.049561   362A      3.062300  
     363A      3.064452   364A      3.065888   365A      3.084474  
     366A      3.087140   367A      3.108765   368A      3.111926  
     369A      3.113687   370A      3.119793   371A      3.146668  
     372A      3.166513   373A      3.168896   374A      3.184782  
     375A      3.187316   376A      3.196381   377A      3.209833  
     378A      3.213468   379A      3.233818   380A      3.234628  
     381A      3.250595   382A      3.259087   383A      3.260187  
     384A      3.280201   385A      3.289168   386A      3.314337  
     387A      3.328794   388A      3.341859   389A      3.350404  
     390A      3.355871   391A      3.373545   392A      3.377188  
     393A      3.387104   394A      3.394093   395A      3.412836  
     396A      3.427065   397A      3.427575   398A      3.447805  
     399A      3.457454   400A      3.458486   401A      3.461674  
     402A      3.480178   403A      3.484959   404A      3.502967  
     405A      3.511254   406A      3.529665   407A      3.530862  
     408A      3.548830   409A      3.558047   410A      3.564134  
     411A      3.572828   412A      3.575432   413A      3.579819  
     414A      3.596806   415A      3.620882   416A      3.626441  
     417A      3.675738   418A      3.691322   419A      3.697889  
     420A      3.714628   421A      3.732099   422A      3.744027  
     423A      3.745939   424A      3.764832   425A      3.775374  
     426A      3.784341   427A      3.787089   428A      3.792400  
     429A      3.807684   430A      3.813358   431A      3.822384  
     432A      3.828361   433A      3.842528   434A      3.844441  
     435A      3.852823   436A      3.859775   437A      3.886143  
     438A      3.888211   439A      3.894567   440A      3.898063  
     441A      3.900099   442A      3.911473   443A      3.916121  
     444A      3.926690   445A      3.933813   446A      3.943258  
     447A      3.943939   448A      3.952268   449A      3.953854  
     450A      3.967256   451A      3.972968   452A      3.988081  
     453A      4.003018   454A      4.006694   455A      4.012135  
     456A      4.018283   457A      4.028093   458A      4.028544  
     459A      4.046235   460A      4.049108   461A      4.055497  
     462A      4.074544   463A      4.089492   464A      4.101838  
     465A      4.108619   466A      4.112248   467A      4.126073  
     468A      4.142085   469A      4.143564   470A      4.148849  
     471A      4.163978   472A      4.167604   473A      4.179305  
     474A      4.186526   475A      4.198464   476A      4.203254  
     477A      4.210559   478A      4.212423   479A      4.231240  
     480A      4.232073   481A      4.237005   482A      4.247673  
     483A      4.251217   484A      4.264628   485A      4.271067  
     486A      4.280236   487A      4.289065   488A      4.291992  
     489A      4.305462   490A      4.321718   491A      4.324498  
     492A      4.331894   493A      4.353709   494A      4.356464  
     495A      4.364578   496A      4.365996   497A      4.384234  
     498A      4.397609   499A      4.401772   500A      4.403725  
     501A      4.409303   502A      4.415847   503A      4.425254  
     504A      4.432838   505A      4.441843   506A      4.446780  
     507A      4.457196   508A      4.469311   509A      4.476208  
     510A      4.482768   511A      4.501339   512A      4.526017  
     513A      4.531790   514A      4.534583   515A      4.553774  
     516A      4.558752   517A      4.575428   518A      4.590455  
     519A      4.592772   520A      4.618500   521A      4.638538  
     522A      4.646119   523A      4.647521   524A      4.649026  
     525A      4.662440   526A      4.697680   527A      4.720707  
     528A      4.737506   529A      4.743855   530A      4.762101  
     531A      4.765650   532A      4.781214   533A      4.784275  
     534A      4.796354   535A      4.809797   536A      4.831122  
     537A      4.836368   538A      4.853097   539A      4.867656  
     540A      4.869511   541A      4.896647   542A      4.908954  
     543A      4.917581   544A      4.930399   545A      4.945460  
     546A      4.983359   547A      4.987833   548A      5.008204  
     549A      5.035168   550A      5.091833   551A      5.128662  
     552A      5.144637   553A      5.164090   554A      5.197121  
     555A      5.253852   556A      5.282793   557A      5.285200  
     558A      5.291319   559A      5.304734   560A      5.327243  
     561A      5.352760   562A      5.353388   563A      5.382273  
     564A      5.386851   565A      5.399356   566A      5.435934  
     567A      5.470006   568A      5.497700   569A      5.536572  
     570A      5.541671   571A      5.553393   572A      5.561012  
[...]
     555A      5.979080   556A      6.000705   557A      6.019300  
     558A      6.034397   559A      6.131476   560A      6.138280  
     561A      6.142839   562A      6.147803   563A      6.153916  
     564A      6.164388   565A      6.169141   566A      6.171850  
     567A      6.178688   568A      6.182424   569A      6.185448  
     570A      6.194062   571A      6.199615   572A      6.200972  
     573A      6.207510   574A      6.212042   575A      6.220800  
     576A      6.231048   577A      6.246073   578A      6.275032  
     579A      6.285791   580A      6.288611   581A      6.318281  
     582A      6.331362   583A      6.345480   584A      6.354522  
     585A      6.358094   586A      6.374484   587A      6.382241  
     588A      6.402799   589A      6.434176   590A      6.471350  
     591A      6.545598   592A      6.546541   593A      6.547930  
     594A      6.554489   595A      6.560844   596A      6.561519  
     597A      6.566845   598A      6.568011   599A      6.629271  
     600A      6.635932   601A      6.639197   602A      6.639840  
     603A      6.649055   604A      6.678436   605A      6.716664  
     606A      6.722813   607A      6.817925   608A      6.819767  
     609A      6.856552   610A      6.866821   611A      6.873509  
     612A      6.879649   613A      7.076840   614A      7.080235  
     615A      7.085077   616A      7.092901   617A      7.112961  
     618A      7.117837   619A      7.122425   620A      7.126200  
     621A      7.181429   622A      7.183528   623A      7.184305  
     624A      7.186948   625A      7.397111   626A      7.404210  
     627A      7.404570   628A      7.409891   629A      7.418344  
     630A      7.419427   631A      7.422603   632A      7.424418  
     633A      7.500193   634A      7.505120   635A      7.509716  
     636A      7.510361   637A      7.531235   638A      7.535910  
     639A      7.538786   640A      7.550152   641A      7.585237  
     642A      7.589763   643A      7.604300   644A      7.608757  
     645A      7.817915   646A      7.827681   647A      7.831543  
     648A      7.835025   649A      7.843627   650A      7.844991  
     651A      7.852028   652A      7.853640   653A      7.935516  
     654A      7.936343   655A      7.947033   656A      7.952632  
     657A      8.016009   658A      8.020920   659A      8.034007  
     660A      8.035214   661A      8.184124   662A      8.190445  
     663A      8.195394   664A      8.195983   665A      8.202873  
     666A      8.207145   667A      8.211942   668A      8.214860  
     669A      8.260785   670A      8.262597   671A      8.271291  
     672A      8.281298   673A     24.103210   674A     24.136627  
     675A     24.147502   676A     24.185518   677A     24.202732  
     678A     24.224487   679A     25.092697   680A     25.099351  
     681A     25.121185   682A     25.122874   683A     34.590189  
     684A     34.597463   685A     45.968389   686A     45.987053  
     687A     46.024355   688A     46.026297   689A     46.028972  
     690A     46.034675   691A     46.065260   692A     46.093529  

    Final Occupation by Irrep:
              A 
    DOCC [    77 ]

  @DF-RHF Final Energy: -1093.36611201624737

   => Energetics <=

    Nuclear Repulsion Energy =           1674.5280748740976833
    One-Electron Energy =               -4915.1430551877410835
    Two-Electron Energy =                2147.2488682973958021
    Total Energy =                      -1093.3661120162473708

Computation Completed


Properties will be evaluated at   0.000000,   0.000000,   0.000000 [a0]

Properties computed using the SCF density matrix

  Nuclear Dipole Moment: [e a0]
     X:    44.5053      Y:   -37.7335      Z:    17.8262

  Electronic Dipole Moment: [e a0]
     X:   -41.5089      Y:    35.2215      Z:   -16.6923

  Dipole Moment: [e a0]
     X:     2.9965      Y:    -2.5121      Z:     1.1339     Total:     4.0713

  Dipole Moment: [D]
     X:     7.6163      Y:    -6.3850      Z:     2.8821     Total:    10.3481


*** tstop() called on osmium at Sun Dec 20 12:15:34 2020
Module time:
	user time   =     743.47 seconds =      12.39 minutes
	system time =      46.91 seconds =       0.78 minutes
	total time  =         68 seconds =       1.13 minutes
Total time:
	user time   =    2596.50 seconds =      43.27 minutes
	system time =     176.45 seconds =       2.94 minutes
	total time  =        239 seconds =       3.98 minutes

   => Loading Basis Set <=

    Name: (DEF2-TZVP AUX)
    Role: RIFIT
    Keyword: DF_BASIS_SAPT
    atoms 1                                      entry CA         line   966 file /home/eric/.pyenv/versions/miniconda3-4.7.12/envs/cclib_berquist_37/share/psi4/basis/def2-tzvp-ri.gbs 
    atoms 2, 4, 26-27, 29-30, 32-33              entry O          line   273 file /home/eric/.pyenv/versions/miniconda3-4.7.12/envs/cclib_berquist_37/share/psi4/basis/def2-tzvp-ri.gbs 
    atoms 3, 5, 9, 12, 15, 19, 22, 25, 28, 31    entry C          line   179 file /home/eric/.pyenv/versions/miniconda3-4.7.12/envs/cclib_berquist_37/share/psi4/basis/def2-tzvp-ri.gbs 
    atoms 6-7, 10-11, 13-14, 16-17, 20-21, 23-24 entry H          line    22 file /home/eric/.pyenv/versions/miniconda3-4.7.12/envs/cclib_berquist_37/share/psi4/basis/def2-tzvp-ri.gbs 
    atoms 8, 18                                  entry N          line   226 file /home/eric/.pyenv/versions/miniconda3-4.7.12/envs/cclib_berquist_37/share/psi4/basis/def2-tzvp-ri.gbs 


  //>>>>>>>>>>>>>>>>>>>>>>>>>>>>>>>>>>>//
  //        SAPT Charge Transfer       //
  //<<<<<<<<<<<<<<<<<<<<<<<<<<<<<<<<<<<//


  //>>>>>>>>>>>>>>>>>>>>>>>>>>>>>>>>>>>//
  //          Dimer Basis SAPT         //
  //<<<<<<<<<<<<<<<<<<<<<<<<<<<<<<<<<<<//


*** tstart() called on osmium
*** at Sun Dec 20 12:15:34 2020

        SAPT0  
    Ed Hohenstein
     6 June 2009

      Orbital Information
  --------------------------
    NSO        =       728
    NMO        =       728
    NRI        =      1805
    NOCC A     =         9
    NOCC B     =        77
    FOCC A     =         0
    FOCC B     =         0
    NVIR A     =       719
    NVIR B     =       651

    Elst10,r            =    -1.365169478867 [Eh]
    Exch10              =     0.153746928643 [Eh]
    Exch10 (S^2)        =     0.152147763348 [Eh]

    Iter     Energy [mEh]          dE [mEh]         Residual      Time [s]
       1      -1.43252660       1.432526604       5.456896547             2
       2      -1.56216985       0.129643242       0.833514725             3
       3      -1.57460066       0.012430809       0.132010333             5
       4      -1.57288326      -0.001717395       0.032958054             7
       5      -1.57287096      -0.000012304       0.005462247             8
       6      -1.57293189       0.000060934       0.000552540            10
       7      -1.57292732      -0.000004572       0.000043658            12
       8      -1.57292752       0.000000199       0.000002922            14
       9      -1.57292751      -0.000000008       0.000000201            15

    CHF Iterations converged


    Iter     Energy [mEh]          dE [mEh]         Residual      Time [s]
       1    -433.56980774     433.569807738     263.134904211             3
       2    -381.79471132     -51.775096419      57.349498822             6
       3    -401.09542934      19.300718020      24.706263203             8
       4    -409.91898289       8.823553554       6.792242004            11
       5    -409.79028515      -0.128697748       3.941084163            14
       6    -408.76631944      -1.023965702       1.202393090            17
       7    -408.82648054       0.060161095       0.478911919            19
       8    -408.90400344       0.077522901       0.143046276            22
       9    -408.90548126       0.001477816       0.043452094            25
      10    -408.89989240      -0.005588857       0.014602531            27
      11    -408.89908304      -0.000809358       0.003356191            30
      12    -408.89954452       0.000461480       0.001282312            33
      13    -408.89959124       0.000046722       0.000573278            36
      14    -408.89953506      -0.000056180       0.000268928            39
      15    -408.89952526      -0.000009807       0.000097121            41
      16    -408.89953437       0.000009113       0.000036137            44
      17    -408.89953465       0.000000283       0.000011373            47
      18    -408.89953385      -0.000000801       0.000003231            50
      19    -408.89953378      -0.000000065       0.000001142            52
      20    -408.89953383       0.000000050       0.000000485            55

    CHF Iterations converged

    Ind20,r (A<-B)      =    -0.001572927510 [Eh]
    Ind20,r (B<-A)      =    -0.408899533835 [Eh]
    Ind20,r             =    -0.410472461345 [Eh]
    Exch-Ind20,r (A<-B) =     0.001412456690 [Eh]
    Exch-Ind20,r (B<-A) =     0.197169272664 [Eh]
    Exch-Ind20,r        =     0.198581729354 [Eh]
    Disp20              =    -0.025973922633 [Eh]
    Disp20 (SS)         =    -0.012986961316 [Eh]
    Disp20 (OS)         =    -0.012986961316 [Eh]
    Exch-Disp20         =     0.004629408361 [Eh]
    Exch-Disp20 (SS)    =     0.002499155389 [Eh]
    Exch-Disp20 (OS)    =     0.002130252972 [Eh]

    SAPT Results 
  --------------------------------------------------------------------------------------------------------
    Electrostatics              -1365.16947887 [mEh]    -856.65678130 [kcal/mol]   -3584.25197296 [kJ/mol]
      Elst10,r                  -1365.16947887 [mEh]    -856.65678130 [kcal/mol]   -3584.25197296 [kJ/mol]

    Exchange                      153.74692864 [mEh]      96.47765429 [kcal/mol]     403.66250554 [kJ/mol]
      Exch10                      153.74692864 [mEh]      96.47765429 [kcal/mol]     403.66250554 [kJ/mol]
      Exch10(S^2)                 152.14776335 [mEh]      95.47416292 [kcal/mol]     399.46389764 [kJ/mol]

    Induction                    -224.08115619 [mEh]    -140.61304840 [kcal/mol]    -588.32499452 [kJ/mol]
      Ind20,r                    -410.47246134 [mEh]    -257.57535822 [kcal/mol]   -1077.69529879 [kJ/mol]
      Exch-Ind20,r                198.58172935 [mEh]     124.61191649 [kcal/mol]     521.37625859 [kJ/mol]
      delta HF,r (2)              -12.19042420 [mEh]      -7.64960667 [kcal/mol]     -32.00595433 [kJ/mol]

    Dispersion                    -21.34451427 [mEh]     -13.39388492 [kcal/mol]     -56.04001450 [kJ/mol]
      Disp20                      -25.97392263 [mEh]     -16.29888252 [kcal/mol]     -68.19452448 [kJ/mol]
      Exch-Disp20                   4.62940836 [mEh]       2.90499760 [kcal/mol]      12.15450998 [kJ/mol]
      Disp20 (SS)                 -12.98696132 [mEh]      -8.14944126 [kcal/mol]     -34.09726224 [kJ/mol]
      Disp20 (OS)                 -12.98696132 [mEh]      -8.14944126 [kcal/mol]     -34.09726224 [kJ/mol]
      Exch-Disp20 (SS)              2.49915539 [mEh]       1.56824368 [kcal/mol]       6.56153157 [kJ/mol]
      Exch-Disp20 (OS)              2.13025297 [mEh]       1.33675392 [kcal/mol]       5.59297841 [kJ/mol]

  Total HF                      -1435.50370641 [mEh]    -900.79217542 [kcal/mol]   -3768.91446195 [kJ/mol]
  Total SAPT0                   -1456.84822069 [mEh]    -914.18606034 [kcal/mol]   -3824.95447645 [kJ/mol]

  Special recipe for scaled SAPT0 (see Manual):
    Electrostatics sSAPT0       -1365.16947887 [mEh]    -856.65678130 [kcal/mol]   -3584.25197296 [kJ/mol]
    Exchange sSAPT0               153.74692864 [mEh]      96.47765429 [kcal/mol]     403.66250554 [kJ/mol]
    Induction sSAPT0             -217.75346860 [mEh]    -136.64236449 [kcal/mol]    -571.71165304 [kJ/mol]
    Dispersion sSAPT0             -21.19700095 [mEh]     -13.30131891 [kcal/mol]     -55.65271834 [kJ/mol]
  Total sSAPT0                  -1450.37301978 [mEh]    -910.12281042 [kcal/mol]   -3807.95383880 [kJ/mol]
  --------------------------------------------------------------------------------------------------------

*** tstop() called on osmium at Sun Dec 20 12:19:42 2020
Module time:
	user time   =    2599.34 seconds =      43.32 minutes
	system time =     153.23 seconds =       2.55 minutes
	total time  =        248 seconds =       4.13 minutes
Total time:
	user time   =    5197.87 seconds =      86.63 minutes
	system time =     329.83 seconds =       5.50 minutes
	total time  =        487 seconds =       8.12 minutes

  //>>>>>>>>>>>>>>>>>>>>>>>>>>>>>>>>>>>//
  //         Monomer Basis SAPT        //
  //<<<<<<<<<<<<<<<<<<<<<<<<<<<<<<<<<<<//


*** tstart() called on osmium
*** at Sun Dec 20 12:19:42 2020

        SAPT0  
    Ed Hohenstein
     6 June 2009

      Orbital Information
  --------------------------
    NSO        =       728
    NSO A      =        36
    NSO B      =       692
    NMO        =       728
    NMO A      =        36
    NMO B      =       692
    NRI        =      1805
    NOCC A     =         9
    NOCC B     =        77
    FOCC A     =         0
    FOCC B     =         0
    NVIR A     =        27
    NVIR B     =       615

    Elst10,r            =    -1.375237770302 [Eh]
    Exch10              =     0.163739900767 [Eh]
    Exch10 (S^2)        =     0.161952545651 [Eh]

    Iter     Energy [mEh]          dE [mEh]         Residual      Time [s]
       1      -0.55349937       0.553499373       4.243005222             0
       2      -0.59705255       0.043553178       0.787377823             0
       3      -0.60925085       0.012198297       0.117393823             0
       4      -0.60855043      -0.000700417       0.030286202             0
       5      -0.60836526      -0.000185169       0.003392331             0
       6      -0.60838533       0.000020072       0.000293405             0
       7      -0.60838475      -0.000000584       0.000024290             0
       8      -0.60838478       0.000000027       0.000001546             0
       9      -0.60838478      -0.000000001       0.000000077             0

    CHF Iterations converged


    Iter     Energy [mEh]          dE [mEh]         Residual      Time [s]
       1    -323.88798240     323.887982399     254.583249753             2
       2    -267.04785846     -56.840123941      50.529831710             5
       3    -276.18856467       9.140706216      23.871139398             7
       4    -283.77865529       7.590090615       6.609093605            10
       5    -284.04697549       0.268320201       3.674862019            12
       6    -283.24816667      -0.798808818       1.207152969            15
       7    -283.25418412       0.006017447       0.414407621            17
       8    -283.31239721       0.058213092       0.125520103            20
       9    -283.31788034       0.005483125       0.035765971            22
      10    -283.31503883      -0.002841503       0.012801298            25
      11    -283.31412412      -0.000914716       0.002512568            27
      12    -283.31438875       0.000264629       0.001169345            30
      13    -283.31442648       0.000037732       0.000525915            32
      14    -283.31438656      -0.000039914       0.000240794            35
      15    -283.31437829      -0.000008270       0.000085147            37
      16    -283.31438348       0.000005190       0.000030534            40
      17    -283.31438421       0.000000723       0.000009686            42
      18    -283.31438376      -0.000000450       0.000002796            45
      19    -283.31438368      -0.000000075       0.000000937            48

    CHF Iterations converged

    Ind20,r (A<-B)      =    -0.000608384776 [Eh]
    Ind20,r (B<-A)      =    -0.283314383681 [Eh]
    Ind20,r             =    -0.283922768457 [Eh]
    Exch-Ind20,r (A<-B) =     0.000651856637 [Eh]
    Exch-Ind20,r (B<-A) =     0.076904272134 [Eh]
    Exch-Ind20,r        =     0.077556128772 [Eh]
    Disp20              =    -0.021078980563 [Eh]
    Disp20 (SS)         =    -0.010539490281 [Eh]
    Disp20 (OS)         =    -0.010539490281 [Eh]
    Exch-Disp20         =     0.001748184652 [Eh]
    Exch-Disp20 (SS)    =     0.000671408294 [Eh]
    Exch-Disp20 (OS)    =     0.001076776358 [Eh]

    SAPT Results 
  --------------------------------------------------------------------------------------------------------
    Electrostatics              -1375.23777030 [mEh]    -862.97472956 [kcal/mol]   -3610.68626848 [kJ/mol]
      Elst10,r                  -1375.23777030 [mEh]    -862.97472956 [kcal/mol]   -3610.68626848 [kJ/mol]

    Exchange                      163.73990077 [mEh]     102.74833897 [kcal/mol]     429.89905024 [kJ/mol]
      Exch10                      163.73990077 [mEh]     102.74833897 [kcal/mol]     429.89905024 [kJ/mol]
      Exch10(S^2)                 161.95254565 [mEh]     101.62675670 [kcal/mol]     425.20635003 [kJ/mol]

    Induction                    -228.11535918 [mEh]    -143.14454900 [kcal/mol]    -598.91679301 [kJ/mol]
      Ind20,r                    -283.92276846 [mEh]    -178.16422703 [kcal/mol]    -745.43912588 [kJ/mol]
      Exch-Ind20,r                 77.55612877 [mEh]      48.66720555 [kcal/mol]     203.62358804 [kJ/mol]
      delta HF,r (2)              -21.74871949 [mEh]     -13.64752752 [kcal/mol]     -57.10125516 [kJ/mol]

    Dispersion                    -19.33079591 [mEh]     -12.13025757 [kcal/mol]     -50.75299767 [kJ/mol]
      Disp20                      -21.07898056 [mEh]     -13.22726000 [kcal/mol]     -55.34285584 [kJ/mol]
      Exch-Disp20                   1.74818465 [mEh]       1.09700243 [kcal/mol]       4.58985817 [kJ/mol]
      Disp20 (SS)                 -10.53949028 [mEh]      -6.61363000 [kcal/mol]     -27.67142792 [kJ/mol]
      Disp20 (OS)                 -10.53949028 [mEh]      -6.61363000 [kcal/mol]     -27.67142792 [kJ/mol]
      Exch-Disp20 (SS)              0.67140829 [mEh]       0.42131507 [kcal/mol]       1.76278223 [kJ/mol]
      Exch-Disp20 (OS)              1.07677636 [mEh]       0.67568737 [kcal/mol]       2.82707594 [kJ/mol]

  Total HF                      -1439.61322871 [mEh]    -903.37093959 [kcal/mol]   -3779.70401125 [kJ/mol]
  Total SAPT0                   -1458.94402462 [mEh]    -915.50119716 [kcal/mol]   -3830.45700892 [kJ/mol]

  Special recipe for scaled SAPT0 (see Manual):
    Electrostatics sSAPT0       -1375.23777030 [mEh]    -862.97472956 [kcal/mol]   -3610.68626848 [kJ/mol]
    Exchange sSAPT0               163.73990077 [mEh]     102.74833897 [kcal/mol]     429.89905024 [kJ/mol]
    Induction sSAPT0             -225.51912041 [mEh]    -141.51538458 [kcal/mol]    -592.10036907 [kJ/mol]
    Dispersion sSAPT0             -19.27227436 [mEh]     -12.09353474 [kcal/mol]     -50.59934937 [kJ/mol]
  Total sSAPT0                  -1456.28926431 [mEh]    -913.83530991 [kcal/mol]   -3823.48693668 [kJ/mol]
  --------------------------------------------------------------------------------------------------------

*** tstop() called on osmium at Sun Dec 20 12:22:26 2020
Module time:
	user time   =    1706.23 seconds =      28.44 minutes
	system time =     106.14 seconds =       1.77 minutes
	total time  =        164 seconds =       2.73 minutes
Total time:
	user time   =    6904.10 seconds =     115.07 minutes
	system time =     435.97 seconds =       7.27 minutes
	total time  =        651 seconds =      10.85 minutes


    SAPT Charge Transfer Analysis
  ------------------------------------------------------------------------------------------------
    SAPT Induction (Dimer Basis)     -211.8907 [mEh]    -132.9634 [kcal/mol]    -556.3190 [kJ/mol]
    SAPT Induction (Monomer Basis)   -206.3666 [mEh]    -129.4970 [kcal/mol]    -541.8155 [kJ/mol]
    SAPT Charge Transfer               -5.5241 [mEh]      -3.4664 [kcal/mol]     -14.5035 [kJ/mol]


    Psi4 stopped on: Sunday, 20 December 2020 12:22PM
    Psi4 wall time for execution: 0:10:51.00

*** Psi4 exiting successfully. Buy a developer a beer!
