
    -----------------------------------------------------------------------
          Psi4: An Open-Source Ab Initio Electronic Structure Package
                               Psi4 1.3.2 release

                         Git: Rev {HEAD} ecbda83 


    R. M. Parrish, L. A. Burns, D. G. A. Smith, A. C. Simmonett,
    A. E. DePrince III, E. G. Hohenstein, U. Bozkaya, A. Yu. Sokolov,
    R. Di Remigio, R. M. Richard, J. F. Gonthier, A. M. James,
    H. R. McAlexander, A. Kumar, M. Saitow, X. Wang, B. P. Pritchard,
    P. Verma, H. F. Schaefer III, K. Patkowski, R. A. King, E. F. Valeev,
    F. A. Evangelista, J. M. Turney, T. D. Crawford, and C. D. Sherrill,
    J. Chem. Theory Comput. 13(7) pp 3185--3197 (2017).
    (doi: 10.1021/acs.jctc.7b00174)


                         Additional Contributions by
    P. Kraus, H. Kruse, M. H. Lechner, M. C. Schieber, R. A. Shaw,
    A. Alenaizan, R. Galvelis, Z. L. Glick, S. Lehtola, and J. P. Misiewicz

    -----------------------------------------------------------------------


    Psi4 started on: Saturday, 19 December 2020 01:24PM

    Process ID: 820971
    Host:       osmium
    PSIDATADIR: /home/eric/.pyenv/versions/miniconda3-4.7.12/envs/cclib_berquist_37/share/psi4
    Memory:     500.0 MiB
    Threads:    12
    
  ==> Input File <==

--------------------------------------------------------------------------
molecule {
2 1
Mg       -0.0189445819    0.0168856118    0.0029552556
--
-4 1
O         0.0059357732    0.0539462402    2.0666953554
C         1.1192677168    0.0565124029    2.6707956290
O         1.2573714505    0.0395244414    3.9053082702
C         2.3884653211    0.1278723578    1.8240492753
H         3.1314435353   -0.5492127077    2.2533000325
H         2.7767185111    1.1399567901    1.9619064517
N         2.1959491132   -0.1350066786    0.3964608780
C         2.7399855870    0.9263867367   -0.4406785973
H         2.8099384384    0.5688976476   -1.4702186279
H         3.7421857655    1.2387509233   -0.1326537005
C         2.5897052603   -1.4944006285    0.0129942865
H         2.6749552922   -1.5336926682   -1.0739775698
H         3.5697888367   -1.7626000133    0.4232645051
C         1.5535070376   -2.5061048344    0.4841153080
H         1.4573549177   -2.4562572045    1.5697776586
H         1.8934956444   -3.5174141170    0.2341259076
N         0.2426874615   -2.2169078213   -0.1065384835
C        -0.8986497874   -2.7109933035    0.6529204644
H        -0.6719353043   -2.6464020709    1.7193064090
H        -1.1376935237   -3.7548077148    0.4292616747
C         0.1689683890   -2.5815163035   -1.5231226018
H        -0.8081969643   -3.0209737048   -1.7379240610
H         0.9132956900   -3.3412529777   -1.7746027711
C         0.3135749725   -1.4133154654   -2.4968563041
O         0.5092072377   -1.6863795543   -3.6927709236
O         0.1881693623   -0.2414664394   -2.0325203989
C         1.8191836002    2.1528535142   -0.4809782972
O         2.3167054138    3.2405970779   -0.8091789340
O         0.5895630873    1.9703752935   -0.2125263301
C        -2.1472787881   -1.8468625277    0.4343522829
O        -3.2537365269   -2.3577093572    0.6653267987
O        -1.9679111967   -0.6429723725    0.0657648319

units angstrom
no_reorient
symmetry c1
}

set {
    basis def2-tzvp
}

energy("sapt0-ct")
--------------------------------------------------------------------------

  //>>>>>>>>>>>>>>>>>>>>>>>>>>>>>>>>>>>//
  //              Dimer HF             //
  //<<<<<<<<<<<<<<<<<<<<<<<<<<<<<<<<<<<//


*** tstart() called on osmium
*** at Sat Dec 19 13:24:18 2020

   => Loading Basis Set <=

    Name: DEF2-TZVP
    Role: ORBITAL
    Keyword: BASIS
    atoms 1                                      entry MG         line   327 file /home/eric/.pyenv/versions/miniconda3-4.7.12/envs/cclib_berquist_37/share/psi4/basis/def2-tzvp.gbs 
    atoms 2, 4, 26-27, 29-30, 32-33              entry O          line   189 file /home/eric/.pyenv/versions/miniconda3-4.7.12/envs/cclib_berquist_37/share/psi4/basis/def2-tzvp.gbs 
    atoms 3, 5, 9, 12, 15, 19, 22, 25, 28, 31    entry C          line   123 file /home/eric/.pyenv/versions/miniconda3-4.7.12/envs/cclib_berquist_37/share/psi4/basis/def2-tzvp.gbs 
    atoms 6-7, 10-11, 13-14, 16-17, 20-21, 23-24 entry H          line    15 file /home/eric/.pyenv/versions/miniconda3-4.7.12/envs/cclib_berquist_37/share/psi4/basis/def2-tzvp.gbs 
    atoms 8, 18                                  entry N          line   156 file /home/eric/.pyenv/versions/miniconda3-4.7.12/envs/cclib_berquist_37/share/psi4/basis/def2-tzvp.gbs 


         ---------------------------------------------------------
                                   SCF
               by Justin Turney, Rob Parrish, Andy Simmonett
                          and Daniel G. A. Smith
                              RHF Reference
                       12 Threads,    500 MiB Core
         ---------------------------------------------------------

  ==> Geometry <==

    Molecular point group: c1
    Full point group: C1

    Geometry (in Angstrom), charge = -2, multiplicity = 1:

       Center              X                  Y                   Z               Mass       
    ------------   -----------------  -----------------  -----------------  -----------------
         MG          -0.545446733615     0.522518023500    -0.059535671302    23.985041697000
         O           -0.520566378515     0.559578651900     2.004204428498    15.994914619570
         C            0.592765565085     0.562144814600     2.608304702098    12.000000000000
         O            0.730869298785     0.545156853100     3.842817343298    15.994914619570
         C            1.861963169385     0.633504769500     1.761558348398    12.000000000000
         H            2.604941383585    -0.043580296000     2.190809105598     1.007825032230
         H            2.250216359385     1.645589201800     1.899415524798     1.007825032230
         N            1.669446961485     0.370625733100     0.333969951098    14.003074004430
         C            2.213483435285     1.432019148400    -0.503169524202    12.000000000000
         H            2.283436286685     1.074530059300    -1.532709554802     1.007825032230
         H            3.215683613785     1.744383335000    -0.195144627402     1.007825032230
         C            2.063203108585    -0.988768216800    -0.049496640402    12.000000000000
         H            2.148453140485    -1.028060256500    -1.136468496702     1.007825032230
         H            3.043286684985    -1.256967601600     0.360773578198     1.007825032230
         C            1.027004885885    -2.000472422700     0.421624381098    12.000000000000
         H            0.930852765985    -1.950624792800     1.507286731698     1.007825032230
         H            1.366993492685    -3.011781705300     0.171634980698     1.007825032230
         N           -0.283814690215    -1.711275409600    -0.169029410402    14.003074004430
         C           -1.425151939115    -2.205360891800     0.590429537498    12.000000000000
         H           -1.198437456015    -2.140769659200     1.656815482098     1.007825032230
         H           -1.664195675415    -3.249175303100     0.366770747798     1.007825032230
         C           -0.357533762715    -2.075883891800    -1.585613528702    12.000000000000
         H           -1.334699116015    -2.515341293100    -1.800414987902     1.007825032230
         H            0.386793538285    -2.835620566000    -1.837093698002     1.007825032230
         C           -0.212927179215    -0.907683053700    -2.559347231002    12.000000000000
         O           -0.017294914015    -1.180747142600    -3.755261850502    15.994914619570
         O           -0.338332789415     0.264165972300    -2.095011325802    15.994914619570
         C            1.292681448485     2.658485925900    -0.543469224102    12.000000000000
         O            1.790203262085     3.746229489600    -0.871669860902    15.994914619570
         O            0.063060935585     2.476007705200    -0.275017257002    15.994914619570
         C           -2.673780939815    -1.341230116000     0.371861355998    12.000000000000
         O           -3.780238678615    -1.852076945500     0.602835871798    15.994914619570
         O           -2.494413348415    -0.137339960800     0.003273904998    15.994914619570

  Running in c1 symmetry.

  Rotational constants: A =      0.01306  B =      0.01029  C =      0.00808 [cm^-1]
  Rotational constants: A =    391.38338  B =    308.33867  C =    242.18848 [MHz]
  Nuclear repulsion = 2050.006549151867603

  Charge       = -2
  Multiplicity = 1
  Electrons    = 164
  Nalpha       = 82
  Nbeta        = 82

  ==> Algorithm <==

  SCF Algorithm Type is DF.
  DIIS enabled.
  MOM disabled.
  Fractional occupation disabled.
  Guess Type is SAD.
  Energy threshold   = 1.00e-08
  Density threshold  = 1.00e-08
  Integral threshold = 0.00e+00

  ==> Primary Basis <==

  Basis Set: DEF2-TZVP
    Blend: DEF2-TZVP
    Number of shells: 280
    Number of basis function: 724
    Number of Cartesian functions: 827
    Spherical Harmonics?: true
    Max angular momentum: 3

   => Loading Basis Set <=

    Name: (DEF2-TZVP AUX)
    Role: JKFIT
    Keyword: DF_BASIS_SCF
    atoms 1                                      entry MG         line   581 file /home/eric/.pyenv/versions/miniconda3-4.7.12/envs/cclib_berquist_37/share/psi4/basis/def2-tzvp-jkfit.gbs 
    atoms 2, 4, 26-27, 29-30, 32-33              entry O          line   323 file /home/eric/.pyenv/versions/miniconda3-4.7.12/envs/cclib_berquist_37/share/psi4/basis/def2-tzvp-jkfit.gbs 
    atoms 3, 5, 9, 12, 15, 19, 22, 25, 28, 31    entry C          line   203 file /home/eric/.pyenv/versions/miniconda3-4.7.12/envs/cclib_berquist_37/share/psi4/basis/def2-tzvp-jkfit.gbs 
    atoms 6-7, 10-11, 13-14, 16-17, 20-21, 23-24 entry H          line    23 file /home/eric/.pyenv/versions/miniconda3-4.7.12/envs/cclib_berquist_37/share/psi4/basis/def2-tzvp-jkfit.gbs 
    atoms 8, 18                                  entry N          line   263 file /home/eric/.pyenv/versions/miniconda3-4.7.12/envs/cclib_berquist_37/share/psi4/basis/def2-tzvp-jkfit.gbs 

  ==> Pre-Iterations <==

   -------------------------------------------------------
    Irrep   Nso     Nmo     Nalpha   Nbeta   Ndocc  Nsocc
   -------------------------------------------------------
     A        724     724       0       0       0       0
   -------------------------------------------------------
    Total     724     724      82      82      82       0
   -------------------------------------------------------

  ==> Integral Setup <==

  ==> DiskDFJK: Density-Fitted J/K Matrices <==

    J tasked:                  Yes
    K tasked:                  Yes
    wK tasked:                  No
    OpenMP threads:             12
    Integrals threads:          12
    Memory [MiB]:              375
    Algorithm:                Disk
    Integral Cache:           SAVE
    Schwarz Cutoff:          1E-12
    Fitting Condition:       1E-10

   => Auxiliary Basis Set <=

  Basis Set: (DEF2-TZVP AUX)
    Blend: DEF2-TZVP-JKFIT
    Number of shells: 606
    Number of basis function: 1848
    Number of Cartesian functions: 2197
    Spherical Harmonics?: true
    Max angular momentum: 4

  Minimum eigenvalue in the overlap matrix is 7.7843559869E-05.
  Using Symmetric Orthogonalization.

  SCF Guess: Superposition of Atomic Densities via on-the-fly atomic UHF.

  ==> Iterations <==

                           Total Energy        Delta E     RMS |[F,P]|

   @DF-RHF iter SAD: -1292.56969664654457   -1.29257e+03   0.00000e+00 
   @DF-RHF iter   1: -1292.99129070456479   -4.21594e-01   1.83642e-03 DIIS
   @DF-RHF iter   2: -1293.51846622706216   -5.27176e-01   1.19415e-03 DIIS
   @DF-RHF iter   3: -1293.76592495394175   -2.47459e-01   1.50548e-04 DIIS
   @DF-RHF iter   4: -1293.77373346825971   -7.80851e-03   5.84453e-05 DIIS
   @DF-RHF iter   5: -1293.77475059042536   -1.01712e-03   1.52004e-05 DIIS
   @DF-RHF iter   6: -1293.77482214313045   -7.15527e-05   6.22717e-06 DIIS
   @DF-RHF iter   7: -1293.77483555599156   -1.34129e-05   1.74987e-06 DIIS
   @DF-RHF iter   8: -1293.77483697559592   -1.41960e-06   6.49126e-07 DIIS
   @DF-RHF iter   9: -1293.77483720208602   -2.26490e-07   2.99005e-07 DIIS
   @DF-RHF iter  10: -1293.77483726444166   -6.23556e-08   9.96125e-08 DIIS
   @DF-RHF iter  11: -1293.77483727300273   -8.56107e-09   2.87871e-08 DIIS
   @DF-RHF iter  12: -1293.77483727350955   -5.06816e-10   1.03679e-08 DIIS
   @DF-RHF iter  13: -1293.77483727355957   -5.00222e-11   3.47091e-09 DIIS
  Energy and wave function converged.


  ==> Post-Iterations <==

    Orbital Energies [Eh]
    ---------------------

    Doubly Occupied:                                                      

       1A    -48.711061     2A    -20.270380     3A    -20.270312  
       4A    -20.262086     5A    -20.261931     6A    -20.261838  
       7A    -20.261464     8A    -20.254737     9A    -20.254432  
      10A    -15.372016    11A    -15.371841    12A    -11.108892  
      13A    -11.108666    14A    -11.102834    15A    -11.102656  
      16A    -11.078921    17A    -11.078282    18A    -11.054229  
      19A    -11.054060    20A    -11.048076    21A    -11.047882  
      22A     -3.450347    23A     -1.973225    24A     -1.972076  
      25A     -1.971701    26A     -1.155914    27A     -1.153783  
      28A     -1.144530    29A     -1.144116    30A     -1.065749  
      31A     -1.048125    32A     -1.045685    33A     -1.042129  
      34A     -1.037304    35A     -1.030589    36A     -0.843276  
      37A     -0.786165    38A     -0.783841    39A     -0.734703  
      40A     -0.671083    41A     -0.615354    42A     -0.530535  
      43A     -0.519162    44A     -0.508062    45A     -0.504536  
      46A     -0.485287    47A     -0.475327    48A     -0.458898  
      49A     -0.441603    50A     -0.437546    51A     -0.426815  
      52A     -0.409791    53A     -0.403145    54A     -0.398410  
      55A     -0.387879    56A     -0.378533    57A     -0.377658  
      58A     -0.368935    59A     -0.363903    60A     -0.360430  
      61A     -0.348529    62A     -0.345453    63A     -0.340297  
      64A     -0.319678    65A     -0.300869    66A     -0.297200  
      67A     -0.292046    68A     -0.287884    69A     -0.224467  
      70A     -0.217673    71A     -0.209273    72A     -0.203137  
      73A     -0.196787    74A     -0.191873    75A     -0.180065  
      76A     -0.178768    77A     -0.175384    78A     -0.175200  
      79A     -0.170705    80A     -0.165146    81A     -0.161162  
      82A     -0.160359  

    Virtual:                                                              

      83A      0.305204    84A      0.330399    85A      0.331130  
      86A      0.351194    87A      0.364876    88A      0.365797  
      89A      0.382937    90A      0.387311    91A      0.393894  
      92A      0.399631    93A      0.405642    94A      0.426521  
      95A      0.428989    96A      0.438718    97A      0.447622  
      98A      0.450245    99A      0.456826   100A      0.462471  
     101A      0.468821   102A      0.470879   103A      0.474186  
     104A      0.487614   105A      0.508875   106A      0.513354  
     107A      0.516619   108A      0.525687   109A      0.532371  
     110A      0.541727   111A      0.559362   112A      0.560717  
     113A      0.566309   114A      0.575288   115A      0.579925  
     116A      0.585406   117A      0.591918   118A      0.607114  
     119A      0.614607   120A      0.620970   121A      0.637394  
     122A      0.645796   123A      0.647295   124A      0.655310  
     125A      0.663443   126A      0.665718   127A      0.674445  
     128A      0.677541   129A      0.680912   130A      0.690458  
     131A      0.701790   132A      0.707848   133A      0.710380  
     134A      0.710697   135A      0.717127   136A      0.719341  
     137A      0.730006   138A      0.735008   139A      0.737994  
     140A      0.744112   141A      0.745685   142A      0.750646  
     143A      0.755156   144A      0.766828   145A      0.775863  
     146A      0.779877   147A      0.783480   148A      0.785394  
     149A      0.796853   150A      0.797832   151A      0.808075  
     152A      0.809303   153A      0.815701   154A      0.827414  
     155A      0.829752   156A      0.839344   157A      0.840044  
     158A      0.847100   159A      0.856368   160A      0.857601  
     161A      0.861770   162A      0.862177   163A      0.874957  
     164A      0.879517   165A      0.881548   166A      0.893846  
     167A      0.895726   168A      0.900813   169A      0.903628  
     170A      0.909794   171A      0.913766   172A      0.941977  
     173A      0.948187   174A      0.951785   175A      0.969273  
     176A      0.975967   177A      0.988293   178A      0.995050  
     179A      0.997458   180A      0.999955   181A      1.005628  
     182A      1.008571   183A      1.014551   184A      1.015762  
     185A      1.019611   186A      1.035395   187A      1.036345  
     188A      1.045160   189A      1.049259   190A      1.064551  
     191A      1.069977   192A      1.071363   193A      1.089106  
     194A      1.091954   195A      1.111288   196A      1.113141  
     197A      1.131714   198A      1.131805   199A      1.135618  
     200A      1.140569   201A      1.150995   202A      1.166005  
     203A      1.167705   204A      1.176761   205A      1.188361  
     206A      1.206021   207A      1.220032   208A      1.224151  
     209A      1.231949   210A      1.242086   211A      1.247022  
     212A      1.256503   213A      1.257741   214A      1.266539  
     215A      1.273991   216A      1.277897   217A      1.292513  
     218A      1.297273   219A      1.307651   220A      1.317042  
     221A      1.320731   222A      1.322397   223A      1.341282  
     224A      1.347679   225A      1.359415   226A      1.369720  
     227A      1.375459   228A      1.383839   229A      1.388693  
     230A      1.390786   231A      1.403396   232A      1.417054  
     233A      1.418910   234A      1.428562   235A      1.437699  
     236A      1.458864   237A      1.461336   238A      1.465635  
     239A      1.477360   240A      1.481114   241A      1.482493  
     242A      1.510824   243A      1.518391   244A      1.526848  
     245A      1.528501   246A      1.528853   247A      1.544225  
     248A      1.563679   249A      1.568570   250A      1.583682  
     251A      1.589792   252A      1.597701   253A      1.605875  
     254A      1.615373   255A      1.620118   256A      1.622286  
     257A      1.653306   258A      1.659305   259A      1.666968  
     260A      1.680483   261A      1.688253   262A      1.715366  
     263A      1.720333   264A      1.732767   265A      1.743261  
     266A      1.751498   267A      1.766598   268A      1.805220  
     269A      1.822047   270A      1.851586   271A      1.852952  
     272A      1.863047   273A      1.867274   274A      1.874737  
     275A      1.896236   276A      1.912942   277A      1.919782  
     278A      1.947228   279A      1.954134   280A      1.970495  
     281A      1.974345   282A      1.980150   283A      1.981465  
     284A      1.993734   285A      1.999515   286A      2.003127  
     287A      2.018441   288A      2.029189   289A      2.032269  
     290A      2.046379   291A      2.060947   292A      2.062085  
     293A      2.064142   294A      2.080989   295A      2.089968  
     296A      2.092924   297A      2.108260   298A      2.114476  
     299A      2.120286   300A      2.132713   301A      2.135409  
     302A      2.141025   303A      2.147854   304A      2.154595  
     305A      2.162312   306A      2.177727   307A      2.181790  
     308A      2.191441   309A      2.206734   310A      2.207654  
     311A      2.222652   312A      2.223434   313A      2.249423  
     314A      2.262092   315A      2.271583   316A      2.281665  
     317A      2.288753   318A      2.315879   319A      2.347418  
     320A      2.348412   321A      2.369979   322A      2.379361  
     323A      2.393262   324A      2.396897   325A      2.407706  
     326A      2.413194   327A      2.416505   328A      2.427268  
     329A      2.446664   330A      2.454857   331A      2.464076  
     332A      2.485503   333A      2.488244   334A      2.505918  
     335A      2.506637   336A      2.517507   337A      2.533525  
     338A      2.551409   339A      2.552109   340A      2.562265  
     341A      2.570376   342A      2.586046   343A      2.587600  
     344A      2.600307   345A      2.604713   346A      2.613403  
     347A      2.624552   348A      2.628142   349A      2.629816  
     350A      2.633456   351A      2.644854   352A      2.658290  
     353A      2.663848   354A      2.665904   355A      2.697869  
     356A      2.703481   357A      2.705371   358A      2.706414  
     359A      2.708769   360A      2.744156   361A      2.773704  
     362A      2.783715   363A      2.785130   364A      2.796017  
     365A      2.802553   366A      2.808374   367A      2.832055  
     368A      2.834316   369A      2.836006   370A      2.851925  
     371A      2.857323   372A      2.858252   373A      2.870812  
     374A      2.880670   375A      2.898668   376A      2.902882  
     377A      2.910215   378A      2.937028   379A      2.946200  
     380A      2.959380   381A      2.965690   382A      2.969018  
     383A      2.979999   384A      2.982943   385A      2.988222  
     386A      3.012756   387A      3.033853   388A      3.036939  
     389A      3.051213   390A      3.055435   391A      3.070859  
     392A      3.074751   393A      3.089579   394A      3.094567  
     395A      3.106356   396A      3.106685   397A      3.128869  
     398A      3.149094   399A      3.157897   400A      3.166606  
     401A      3.175459   402A      3.188874   403A      3.195709  
     404A      3.208348   405A      3.218752   406A      3.225729  
     407A      3.232827   408A      3.248765   409A      3.253863  
     410A      3.257863   411A      3.272629   412A      3.281762  
     413A      3.285765   414A      3.292268   415A      3.300218  
     416A      3.315433   417A      3.320376   418A      3.332928  
     419A      3.348994   420A      3.362484   421A      3.396134  
     422A      3.399524   423A      3.400897   424A      3.451953  
     425A      3.470627   426A      3.483874   427A      3.490840  
     428A      3.493343   429A      3.497440   430A      3.517550  
     431A      3.520364   432A      3.525069   433A      3.527905  
     434A      3.539804   435A      3.569882   436A      3.572986  
     437A      3.579061   438A      3.588029   439A      3.593151  
     440A      3.607790   441A      3.616876   442A      3.617204  
     443A      3.624465   444A      3.632750   445A      3.637119  
     446A      3.641914   447A      3.651931   448A      3.669687  
     449A      3.672625   450A      3.684272   451A      3.692418  
     452A      3.697602   453A      3.700307   454A      3.713556  
     455A      3.720721   456A      3.724436   457A      3.731822  
     458A      3.750589   459A      3.752272   460A      3.757824  
     461A      3.769748   462A      3.777842   463A      3.786012  
     464A      3.787659   465A      3.788306   466A      3.807523  
     467A      3.815930   468A      3.827031   469A      3.830651  
     470A      3.838982   471A      3.864690   472A      3.865991  
     473A      3.880441   474A      3.887982   475A      3.889004  
     476A      3.895675   477A      3.900932   478A      3.908134  
     479A      3.924767   480A      3.926127   481A      3.940527  
     482A      3.946983   483A      3.956438   484A      3.960413  
     485A      3.982758   486A      3.986036   487A      3.989543  
     488A      3.997063   489A      4.010897   490A      4.020915  
     491A      4.021281   492A      4.034398   493A      4.036575  
     494A      4.055482   495A      4.064724   496A      4.075800  
     497A      4.077464   498A      4.092609   499A      4.101479  
     500A      4.104796   501A      4.116793   502A      4.118300  
     503A      4.130323   504A      4.130550   505A      4.145822  
     506A      4.151502   507A      4.161620   508A      4.171717  
     509A      4.179293   510A      4.190841   511A      4.195353  
     512A      4.203252   513A      4.204353   514A      4.221370  
     515A      4.244300   516A      4.245466   517A      4.267599  
     518A      4.292561   519A      4.298869   520A      4.315390  
     521A      4.318810   522A      4.330640   523A      4.340102  
     524A      4.356911   525A      4.376463   526A      4.412407  
     527A      4.419530   528A      4.432165   529A      4.455917  
     530A      4.492723   531A      4.495242   532A      4.498274  
     533A      4.507239   534A      4.516352   535A      4.521261  
     536A      4.531453   537A      4.567858   538A      4.572929  
     539A      4.578582   540A      4.596907   541A      4.599923  
     542A      4.631527   543A      4.633359   544A      4.670408  
     545A      4.680092   546A      4.713326   547A      4.715031  
     548A      4.716490   549A      4.757869   550A      4.783106  
     551A      4.800144   552A      4.867348   553A      4.887932  
     554A      4.903876   555A      4.966167   556A      5.007562  
     557A      5.012427   558A      5.033803   559A      5.039624  
     560A      5.054862   561A      5.091169   562A      5.102758  
     563A      5.104563   564A      5.112628   565A      5.130541  
     566A      5.143052   567A      5.181794   568A      5.245755  
     569A      5.257289   570A      5.274087   571A      5.283318  
     572A      5.296716   573A      5.304685   574A      5.352279  
     575A      5.369252   576A      5.402076   577A      5.406573  
     578A      5.444670   579A      5.520130   580A      5.563943  
     581A      5.706635   582A      5.731127   583A      5.765356  
     584A      5.766253   585A      5.843510   586A      5.849232  
     587A      5.870018   588A      5.881013   589A      5.888859  
     590A      5.889397   591A      5.890978   592A      5.896095  
     593A      5.900088   594A      5.905693   595A      5.911918  
     596A      5.912830   597A      5.921168   598A      5.921667  
     599A      5.931014   600A      5.937097   601A      5.940494  
     602A      5.942156   603A      5.954251   604A      5.981838  
     605A      6.020051   606A      6.020552   607A      6.035288  
     608A      6.045787   609A      6.054449   610A      6.063671  
     611A      6.070712   612A      6.084965   613A      6.090379  
     614A      6.112061   615A      6.142605   616A      6.192080  
     617A      6.252169   618A      6.266785   619A      6.270522  
     620A      6.270810   621A      6.282893   622A      6.283404  
     623A      6.293759   624A      6.302357   625A      6.331663  
     626A      6.352555   627A      6.367262   628A      6.371649  
     629A      6.377158   630A      6.385650   631A      6.426953  
     632A      6.438205   633A      6.553357   634A      6.563532  
     635A      6.585469   636A      6.596420   637A      6.597617  
     638A      6.609931   639A      6.793103   640A      6.796969  
     641A      6.799974   642A      6.812927   643A      6.854685  
     644A      6.861378   645A      6.875255   646A      6.880096  
     647A      6.904112   648A      6.908632   649A      6.914600  
     650A      6.930508   651A      7.067608   652A      7.139995  
     653A      7.145197   654A      7.145836   655A      7.149981  
     656A      7.153001   657A      7.158874   658A      7.162538  
     659A      7.167613   660A      7.246970   661A      7.252750  
     662A      7.255251   663A      7.260922   664A      7.272775  
     665A      7.277317   666A      7.279452   667A      7.283439  
     668A      7.330754   669A      7.368727   670A      7.428826  
     671A      7.455737   672A      7.489114   673A      7.495465  
     674A      7.520863   675A      7.556572   676A      7.564730  
     677A      7.569251   678A      7.583715   679A      7.593903  
     680A      7.595476   681A      7.610560   682A      7.650428  
     683A      7.652214   684A      7.656221   685A      7.668735  
     686A      7.680443   687A      7.688537   688A      7.778967  
     689A      7.783674   690A      7.793926   691A      7.802882  
     692A      7.810360   693A      7.937701   694A      7.940454  
     695A      7.949264   696A      7.951009   697A      7.951520  
     698A      7.969366   699A      7.978437   700A      7.989679  
     701A      8.009929   702A      8.013535   703A      8.077028  
     704A      8.139883   705A     23.857280   706A     23.887525  
     707A     23.923091   708A     23.935313   709A     23.960803  
     710A     23.975435   711A     24.851036   712A     24.876458  
     713A     24.884617   714A     24.903358   715A     34.437362  
     716A     34.472082   717A     45.750106   718A     45.750864  
     719A     45.760620   720A     45.771983   721A     45.801831  
     722A     45.829334   723A     45.896857   724A     45.903108  

    Final Occupation by Irrep:
              A 
    DOCC [    82 ]

  @DF-RHF Final Energy: -1293.77483727355957

   => Energetics <=

    Nuclear Repulsion Energy =           2050.0065491518676026
    One-Electron Energy =               -5906.7933816476343054
    Two-Electron Energy =                2563.0119952222071333
    Total Energy =                      -1293.7748372735595694

Computation Completed


Properties will be evaluated at   0.000000,   0.000000,   0.000000 [a0]

Properties computed using the SCF density matrix

  Nuclear Dipole Moment: [e a0]
     X:    13.1221      Y:   -12.6865      Z:     1.5445

  Electronic Dipole Moment: [e a0]
     X:    -9.5197      Y:     9.1907      Z:    -1.1133

  Dipole Moment: [e a0]
     X:     3.6024      Y:    -3.4958      Z:     0.4312     Total:     5.0383

  Dipole Moment: [D]
     X:     9.1565      Y:    -8.8854      Z:     1.0960     Total:    12.8060


*** tstop() called on osmium at Sat Dec 19 13:25:41 2020
Module time:
	user time   =     897.19 seconds =      14.95 minutes
	system time =      68.47 seconds =       1.14 minutes
	total time  =         83 seconds =       1.38 minutes
Total time:
	user time   =     897.19 seconds =      14.95 minutes
	system time =      68.47 seconds =       1.14 minutes
	total time  =         83 seconds =       1.38 minutes

  //>>>>>>>>>>>>>>>>>>>>>>>>>>>>>>>>>>>//
  //     Monomer A HF (Dimer Basis)    //
  //<<<<<<<<<<<<<<<<<<<<<<<<<<<<<<<<<<<//


*** tstart() called on osmium
*** at Sat Dec 19 13:25:41 2020

   => Loading Basis Set <=

    Name: DEF2-TZVP
    Role: ORBITAL
    Keyword: BASIS
    atoms 1                                      entry MG         line   327 file /home/eric/.pyenv/versions/miniconda3-4.7.12/envs/cclib_berquist_37/share/psi4/basis/def2-tzvp.gbs 
    atoms 2, 4, 26-27, 29-30, 32-33              entry O          line   189 file /home/eric/.pyenv/versions/miniconda3-4.7.12/envs/cclib_berquist_37/share/psi4/basis/def2-tzvp.gbs 
    atoms 3, 5, 9, 12, 15, 19, 22, 25, 28, 31    entry C          line   123 file /home/eric/.pyenv/versions/miniconda3-4.7.12/envs/cclib_berquist_37/share/psi4/basis/def2-tzvp.gbs 
    atoms 6-7, 10-11, 13-14, 16-17, 20-21, 23-24 entry H          line    15 file /home/eric/.pyenv/versions/miniconda3-4.7.12/envs/cclib_berquist_37/share/psi4/basis/def2-tzvp.gbs 
    atoms 8, 18                                  entry N          line   156 file /home/eric/.pyenv/versions/miniconda3-4.7.12/envs/cclib_berquist_37/share/psi4/basis/def2-tzvp.gbs 


         ---------------------------------------------------------
                                   SCF
               by Justin Turney, Rob Parrish, Andy Simmonett
                          and Daniel G. A. Smith
                              RHF Reference
                       12 Threads,    500 MiB Core
         ---------------------------------------------------------

  ==> Geometry <==

    Molecular point group: c1
    Full point group: C1

    Geometry (in Angstrom), charge = 2, multiplicity = 1:

       Center              X                  Y                   Z               Mass       
    ------------   -----------------  -----------------  -----------------  -----------------
         MG          -0.545446733615     0.522518023500    -0.059535671302    23.985041697000
      Gh(O)          -0.520566378515     0.559578651900     2.004204428498    15.994914619570
      Gh(C)           0.592765565085     0.562144814600     2.608304702098    12.000000000000
      Gh(O)           0.730869298785     0.545156853100     3.842817343298    15.994914619570
      Gh(C)           1.861963169385     0.633504769500     1.761558348398    12.000000000000
      Gh(H)           2.604941383585    -0.043580296000     2.190809105598     1.007825032230
      Gh(H)           2.250216359385     1.645589201800     1.899415524798     1.007825032230
      Gh(N)           1.669446961485     0.370625733100     0.333969951098    14.003074004430
      Gh(C)           2.213483435285     1.432019148400    -0.503169524202    12.000000000000
      Gh(H)           2.283436286685     1.074530059300    -1.532709554802     1.007825032230
      Gh(H)           3.215683613785     1.744383335000    -0.195144627402     1.007825032230
      Gh(C)           2.063203108585    -0.988768216800    -0.049496640402    12.000000000000
      Gh(H)           2.148453140485    -1.028060256500    -1.136468496702     1.007825032230
      Gh(H)           3.043286684985    -1.256967601600     0.360773578198     1.007825032230
      Gh(C)           1.027004885885    -2.000472422700     0.421624381098    12.000000000000
      Gh(H)           0.930852765985    -1.950624792800     1.507286731698     1.007825032230
      Gh(H)           1.366993492685    -3.011781705300     0.171634980698     1.007825032230
      Gh(N)          -0.283814690215    -1.711275409600    -0.169029410402    14.003074004430
      Gh(C)          -1.425151939115    -2.205360891800     0.590429537498    12.000000000000
      Gh(H)          -1.198437456015    -2.140769659200     1.656815482098     1.007825032230
      Gh(H)          -1.664195675415    -3.249175303100     0.366770747798     1.007825032230
      Gh(C)          -0.357533762715    -2.075883891800    -1.585613528702    12.000000000000
      Gh(H)          -1.334699116015    -2.515341293100    -1.800414987902     1.007825032230
      Gh(H)           0.386793538285    -2.835620566000    -1.837093698002     1.007825032230
      Gh(C)          -0.212927179215    -0.907683053700    -2.559347231002    12.000000000000
      Gh(O)          -0.017294914015    -1.180747142600    -3.755261850502    15.994914619570
      Gh(O)          -0.338332789415     0.264165972300    -2.095011325802    15.994914619570
      Gh(C)           1.292681448485     2.658485925900    -0.543469224102    12.000000000000
      Gh(O)           1.790203262085     3.746229489600    -0.871669860902    15.994914619570
      Gh(O)           0.063060935585     2.476007705200    -0.275017257002    15.994914619570
      Gh(C)          -2.673780939815    -1.341230116000     0.371861355998    12.000000000000
      Gh(O)          -3.780238678615    -1.852076945500     0.602835871798    15.994914619570
      Gh(O)          -2.494413348415    -0.137339960800     0.003273904998    15.994914619570

  Running in c1 symmetry.

  Rotational constants: A =      0.01306  B =      0.01029  C =      0.00808 [cm^-1]
  Rotational constants: A =    391.38338  B =    308.33867  C =    242.18848 [MHz]
  Nuclear repulsion =    0.000000000000000

  Charge       = 2
  Multiplicity = 1
  Electrons    = 10
  Nalpha       = 5
  Nbeta        = 5

  ==> Algorithm <==

  SCF Algorithm Type is DF.
  DIIS enabled.
  MOM disabled.
  Fractional occupation disabled.
  Guess Type is SAD.
  Energy threshold   = 1.00e-08
  Density threshold  = 1.00e-08
  Integral threshold = 0.00e+00

  ==> Primary Basis <==

  Basis Set: DEF2-TZVP
    Blend: DEF2-TZVP
    Number of shells: 280
    Number of basis function: 724
    Number of Cartesian functions: 827
    Spherical Harmonics?: true
    Max angular momentum: 3

   => Loading Basis Set <=

    Name: (DEF2-TZVP AUX)
    Role: JKFIT
    Keyword: DF_BASIS_SCF
    atoms 1                                      entry MG         line   581 file /home/eric/.pyenv/versions/miniconda3-4.7.12/envs/cclib_berquist_37/share/psi4/basis/def2-tzvp-jkfit.gbs 
    atoms 2, 4, 26-27, 29-30, 32-33              entry O          line   323 file /home/eric/.pyenv/versions/miniconda3-4.7.12/envs/cclib_berquist_37/share/psi4/basis/def2-tzvp-jkfit.gbs 
    atoms 3, 5, 9, 12, 15, 19, 22, 25, 28, 31    entry C          line   203 file /home/eric/.pyenv/versions/miniconda3-4.7.12/envs/cclib_berquist_37/share/psi4/basis/def2-tzvp-jkfit.gbs 
    atoms 6-7, 10-11, 13-14, 16-17, 20-21, 23-24 entry H          line    23 file /home/eric/.pyenv/versions/miniconda3-4.7.12/envs/cclib_berquist_37/share/psi4/basis/def2-tzvp-jkfit.gbs 
    atoms 8, 18                                  entry N          line   263 file /home/eric/.pyenv/versions/miniconda3-4.7.12/envs/cclib_berquist_37/share/psi4/basis/def2-tzvp-jkfit.gbs 

  ==> Pre-Iterations <==

   -------------------------------------------------------
    Irrep   Nso     Nmo     Nalpha   Nbeta   Ndocc  Nsocc
   -------------------------------------------------------
     A        724     724       0       0       0       0
   -------------------------------------------------------
    Total     724     724       5       5       5       0
   -------------------------------------------------------

  ==> Integral Setup <==

  ==> DiskDFJK: Density-Fitted J/K Matrices <==

    J tasked:                  Yes
    K tasked:                  Yes
    wK tasked:                  No
    OpenMP threads:             12
    Integrals threads:          12
    Memory [MiB]:              375
    Algorithm:                Disk
    Integral Cache:           LOAD
    Schwarz Cutoff:          1E-12
    Fitting Condition:       1E-10

   => Auxiliary Basis Set <=

  Basis Set: (DEF2-TZVP AUX)
    Blend: DEF2-TZVP-JKFIT
    Number of shells: 606
    Number of basis function: 1848
    Number of Cartesian functions: 2197
    Spherical Harmonics?: true
    Max angular momentum: 4

  Minimum eigenvalue in the overlap matrix is 7.7843559869E-05.
  Using Symmetric Orthogonalization.

  SCF Guess: Superposition of Atomic Densities via on-the-fly atomic UHF.

  ==> Iterations <==

                           Total Energy        Delta E     RMS |[F,P]|

   @DF-RHF iter SAD:  -199.23023930677482   -1.99230e+02   0.00000e+00 
   @DF-RHF iter   1:  -198.82180056593916    4.08439e-01   1.35213e-04 DIIS
   @DF-RHF iter   2:  -198.82320028320282   -1.39972e-03   3.29010e-05 DIIS
   @DF-RHF iter   3:  -198.82328695596604   -8.66728e-05   1.49721e-06 DIIS
   @DF-RHF iter   4:  -198.82328722628472   -2.70319e-07   5.87489e-08 DIIS
   @DF-RHF iter   5:  -198.82328722655225   -2.67534e-10   2.75134e-09 DIIS
  Energy and wave function converged.


  ==> Post-Iterations <==

    Orbital Energies [Eh]
    ---------------------

    Doubly Occupied:                                                      

       1A    -49.768081     2A     -4.483242     3A     -3.006117  
       4A     -3.006114     5A     -3.006087  

    Virtual:                                                              

       6A     -0.540378     7A     -0.383555     8A     -0.383422  
       9A     -0.383349    10A     -0.228941    11A     -0.222618  
      12A     -0.221723    13A     -0.221044    14A     -0.220470  
      15A     -0.220448    16A     -0.168117    17A     -0.164021  
      18A     -0.161510    19A     -0.102720    20A     -0.102075  
      21A     -0.098837    22A     -0.097310    23A     -0.093761  
      24A     -0.091076    25A     -0.086282    26A     -0.076265  
      27A     -0.059172    28A     -0.058287    29A     -0.045157  
      30A     -0.036398    31A     -0.029304    32A     -0.006445  
      33A     -0.004852    34A      0.007486    35A      0.010071  
      36A      0.012304    37A      0.013278    38A      0.014475  
      39A      0.019767    40A      0.033965    41A      0.039095  
      42A      0.045328    43A      0.046803    44A      0.058595  
      45A      0.076465    46A      0.087847    47A      0.090385  
      48A      0.094161    49A      0.101729    50A      0.105272  
      51A      0.109611    52A      0.117149    53A      0.121269  
      54A      0.123513    55A      0.139749    56A      0.141653  
      57A      0.146207    58A      0.151582    59A      0.154367  
      60A      0.164914    61A      0.186165    62A      0.188240  
      63A      0.189956    64A      0.192215    65A      0.204415  
      66A      0.209329    67A      0.221227    68A      0.222474  
      69A      0.223296    70A      0.232517    71A      0.233962  
      72A      0.247296    73A      0.252062    74A      0.254525  
      75A      0.264219    76A      0.269111    77A      0.270815  
      78A      0.277402    79A      0.279742    80A      0.293605  
      81A      0.293917    82A      0.304748    83A      0.320274  
      84A      0.331720    85A      0.332607    86A      0.340557  
      87A      0.344610    88A      0.353584    89A      0.353726  
      90A      0.366766    91A      0.370136    92A      0.383064  
      93A      0.386797    94A      0.392077    95A      0.398039  
      96A      0.400070    97A      0.402723    98A      0.412517  
      99A      0.422109   100A      0.434493   101A      0.438288  
     102A      0.453719   103A      0.459356   104A      0.471318  
     105A      0.473052   106A      0.475955   107A      0.482621  
     108A      0.491852   109A      0.493253   110A      0.511300  
     111A      0.515755   112A      0.528467   113A      0.537656  
     114A      0.550462   115A      0.564831   116A      0.567546  
     117A      0.572045   118A      0.575826   119A      0.584401  
     120A      0.608714   121A      0.610616   122A      0.611234  
     123A      0.623744   124A      0.636501   125A      0.651670  
     126A      0.661989   127A      0.669386   128A      0.681165  
     129A      0.682462   130A      0.699021   131A      0.710741  
     132A      0.729201   133A      0.742268   134A      0.744929  
     135A      0.758821   136A      0.770836   137A      0.772627  
     138A      0.785988   139A      0.795027   140A      0.800250  
     141A      0.810471   142A      0.812965   143A      0.818003  
     144A      0.823679   145A      0.828095   146A      0.841247  
     147A      0.842748   148A      0.846746   149A      0.862934  
     150A      0.868598   151A      0.895997   152A      0.910666  
     153A      0.924471   154A      0.932909   155A      0.941444  
     156A      0.942795   157A      0.970903   158A      0.973994  
     159A      0.984030   160A      0.987662   161A      1.002175  
     162A      1.003122   163A      1.022861   164A      1.029683  
     165A      1.034908   166A      1.039682   167A      1.052346  
     168A      1.061596   169A      1.068214   170A      1.072847  
     171A      1.080061   172A      1.086463   173A      1.089383  
     174A      1.090918   175A      1.108415   176A      1.109652  
     177A      1.124300   178A      1.131347   179A      1.133574  
     180A      1.139894   181A      1.157180   182A      1.168277  
     183A      1.173716   184A      1.184433   185A      1.195146  
     186A      1.199948   187A      1.200986   188A      1.209626  
     189A      1.210172   190A      1.224889   191A      1.254603  
     192A      1.260592   193A      1.269709   194A      1.272298  
     195A      1.298525   196A      1.313670   197A      1.328097  
     198A      1.332725   199A      1.341296   200A      1.346984  
     201A      1.349144   202A      1.365169   203A      1.367236  
     204A      1.380113   205A      1.392930   206A      1.404162  
     207A      1.414816   208A      1.423554   209A      1.429499  
     210A      1.438466   211A      1.444334   212A      1.461538  
     213A      1.473577   214A      1.480501   215A      1.482251  
     216A      1.512957   217A      1.520527   218A      1.521555  
     219A      1.527959   220A      1.541131   221A      1.562113  
     222A      1.566509   223A      1.590448   224A      1.596660  
     225A      1.609472   226A      1.609813   227A      1.622054  
     228A      1.637026   229A      1.637513   230A      1.653794  
     231A      1.702445   232A      1.703040   233A      1.740621  
     234A      1.745320   235A      1.748823   236A      1.772231  
     237A      1.773838   238A      1.786400   239A      1.792721  
     240A      1.795174   241A      1.808813   242A      1.811378  
     243A      1.820444   244A      1.825709   245A      1.836157  
     246A      1.839880   247A      1.850959   248A      1.855433  
     249A      1.860658   250A      1.865353   251A      1.874513  
     252A      1.885733   253A      1.916713   254A      1.923036  
     255A      1.942309   256A      1.951182   257A      1.951854  
     258A      1.969227   259A      1.971459   260A      1.975419  
     261A      1.996227   262A      1.999562   263A      2.008647  
     264A      2.016527   265A      2.025344   266A      2.035288  
     267A      2.045110   268A      2.056667   269A      2.081200  
     270A      2.086578   271A      2.093341   272A      2.102239  
     273A      2.104786   274A      2.107650   275A      2.133172  
     276A      2.140195   277A      2.148488   278A      2.178807  
     279A      2.193732   280A      2.205861   281A      2.210086  
     282A      2.229569   283A      2.232806   284A      2.270398  
     285A      2.275491   286A      2.294606   287A      2.299109  
     288A      2.301906   289A      2.311694   290A      2.340355  
     291A      2.347095   292A      2.350961   293A      2.354769  
     294A      2.380959   295A      2.385155   296A      2.398342  
     297A      2.413428   298A      2.432757   299A      2.433921  
     300A      2.441916   301A      2.456185   302A      2.474239  
     303A      2.491821   304A      2.509959   305A      2.513688  
     306A      2.520537   307A      2.540774   308A      2.565841  
     309A      2.574761   310A      2.589027   311A      2.589719  
     312A      2.603034   313A      2.610348   314A      2.634158  
     315A      2.635624   316A      2.642522   317A      2.650361  
     318A      2.677803   319A      2.685074   320A      2.713971  
     321A      2.717283   322A      2.730106   323A      2.763330  
     324A      2.774997   325A      2.789723   326A      2.790680  
     327A      2.809880   328A      2.826882   329A      2.841407  
     330A      2.845417   331A      2.865602   332A      2.871908  
     333A      2.891250   334A      2.909982   335A      2.919002  
     336A      2.932883   337A      2.935361   338A      2.947504  
     339A      2.952827   340A      2.990493   341A      3.006385  
     342A      3.007743   343A      3.046958   344A      3.056945  
     345A      3.088598   346A      3.105062   347A      3.120595  
     348A      3.136683   349A      3.150592   350A      3.164760  
     351A      3.175144   352A      3.178211   353A      3.187244  
     354A      3.208730   355A      3.242230   356A      3.256047  
     357A      3.256913   358A      3.273206   359A      3.273602  
     360A      3.297942   361A      3.318250   362A      3.326366  
     363A      3.365559   364A      3.382100   365A      3.404036  
     366A      3.440720   367A      3.451097   368A      3.459523  
     369A      3.476994   370A      3.482730   371A      3.486472  
     372A      3.499354   373A      3.505286   374A      3.526682  
     375A      3.572722   376A      3.586908   377A      3.590050  
     378A      3.632540   379A      3.636219   380A      3.680435  
     381A      3.686236   382A      3.689102   383A      3.714727  
     384A      3.724331   385A      3.730498   386A      3.764389  
     387A      3.769545   388A      3.785674   389A      3.804006  
     390A      3.836428   391A      3.842001   392A      3.860584  
     393A      3.876418   394A      3.879017   395A      3.895277  
     396A      3.908191   397A      3.921757   398A      3.926936  
     399A      3.932249   400A      3.939478   401A      3.945780  
     402A      3.957474   403A      3.973055   404A      3.984760  
     405A      3.991743   406A      4.028172   407A      4.032359  
     408A      4.035244   409A      4.042066   410A      4.055046  
     411A      4.070895   412A      4.072558   413A      4.097782  
     414A      4.109919   415A      4.112538   416A      4.125905  
     417A      4.130534   418A      4.138828   419A      4.143579  
     420A      4.167022   421A      4.173177   422A      4.183117  
     423A      4.199723   424A      4.221924   425A      4.226488  
     426A      4.244591   427A      4.249892   428A      4.267772  
     429A      4.270960   430A      4.277529   431A      4.296118  
     432A      4.303165   433A      4.312139   434A      4.326332  
     435A      4.331449   436A      4.343063   437A      4.347731  
     438A      4.352764   439A      4.370164   440A      4.375419  
     441A      4.379895   442A      4.390426   443A      4.393949  
     444A      4.412197   445A      4.412921   446A      4.442519  
     447A      4.456147   448A      4.464561   449A      4.471083  
     450A      4.482569   451A      4.497661   452A      4.507710  
     453A      4.511346   454A      4.531015   455A      4.567064  
     456A      4.581912   457A      4.594722   458A      4.614551  
     459A      4.617024   460A      4.624904   461A      4.660995  
     462A      4.680499   463A      4.698186   464A      4.730012  
     465A      4.736502   466A      4.758590   467A      4.763614  
     468A      4.767629   469A      4.792009   470A      4.796692  
     471A      4.816226   472A      4.841950   473A      4.852664  
     474A      4.865408   475A      4.908587   476A      4.914814  
     477A      4.954802   478A      4.958191   479A      4.971263  
     480A      5.027146   481A      5.047837   482A      5.073418  
     483A      5.074770   484A      5.099620   485A      5.117552  
     486A      5.158758   487A      5.168948   488A      5.203657  
     489A      5.213752   490A      5.246923   491A      5.257403  
     492A      5.269067   493A      5.280813   494A      5.305434  
     495A      5.322358   496A      5.344947   497A      5.346438  
     498A      5.373510   499A      5.380818   500A      5.393116  
     501A      5.414022   502A      5.434525   503A      5.500683  
     504A      5.515565   505A      5.573045   506A      5.575800  
     507A      5.649366   508A      5.661529   509A      5.663740  
     510A      5.674919   511A      5.679753   512A      5.691842  
     513A      5.692419   514A      5.736869   515A      5.754525  
     516A      5.783602   517A      5.788984   518A      5.801648  
     519A      5.847891   520A      5.849650   521A      5.910400  
     522A      5.932564   523A      5.952241   524A      5.959056  
     525A      5.960639   526A      5.974752   527A      5.975467  
     528A      5.978937   529A      5.984751   530A      5.991202  
     531A      5.993420   532A      6.015730   533A      6.030105  
     534A      6.052884   535A      6.082590   536A      6.107111  
     537A      6.170169   538A      6.171124   539A      6.176913  
     540A      6.181685   541A      6.193162   542A      6.198753  
     543A      6.199978   544A      6.211928   545A      6.212472  
     546A      6.239185   547A      6.246820   548A      6.252472  
     549A      6.265479   550A      6.291634   551A      6.303752  
     552A      6.344468   553A      6.357856   554A      6.363376  
     555A      6.370572   556A      6.385900   557A      6.386057  
     558A      6.403065   559A      6.414907   560A      6.428545  
     561A      6.444253   562A      6.444709   563A      6.457923  
     564A      6.497343   565A      6.503304   566A      6.505843  
     567A      6.549052   568A      6.559530   569A      6.574283  
     570A      6.621854   571A      6.623300   572A      6.630013  
     573A      6.632501   574A      6.666783   575A      6.716054  
     576A      6.731716   577A      6.741130   578A      6.741720  
     579A      6.832488   580A      6.840799   581A      7.016152  
     582A      7.033050   583A      7.040228   584A      7.045611  
     585A      7.075128   586A      7.091461   587A      7.136954  
     588A      7.153709   589A      7.154658   590A      7.180637  
     591A      7.193586   592A      7.199468   593A      7.218268  
     594A      7.222963   595A      7.393791   596A      7.413514  
     597A      7.432260   598A      7.436496   599A      7.455354  
     600A      7.458849   601A      7.485415   602A      7.497307  
     603A      7.516110   604A      7.525870   605A      7.598232  
     606A      7.600218   607A      7.702051   608A      7.734600  
     609A      7.879600   610A      7.880033   611A      7.902036  
     612A      7.904640   613A      8.094266   614A      8.098731  
     615A      8.132609   616A      8.137010   617A      8.585958  
     618A      8.591560   619A      8.631880   620A      8.646155  
     621A      8.675844   622A      8.748991   623A      8.756672  
     624A      8.793178   625A      8.812461   626A      8.830512  
     627A      8.839519   628A      8.848128   629A      8.862439  
     630A      8.865414   631A      8.906236   632A      8.925628  
     633A      8.975399   634A      8.982060   635A      8.999803  
     636A      9.003262   637A      9.039069   638A      9.051611  
     639A      9.077705   640A      9.082017   641A      9.085895  
     642A      9.111829   643A      9.154779   644A      9.160733  
     645A      9.185641   646A      9.189169   647A      9.191195  
     648A      9.198015   649A      9.235650   650A      9.265827  
     651A      9.270686   652A      9.295039   653A      9.305689  
     654A      9.338058   655A      9.344465   656A      9.360589  
     657A      9.405733   658A      9.410396   659A      9.429148  
     660A      9.429791   661A      9.440956   662A      9.445998  
     663A      9.468383   664A      9.478458   665A      9.637612  
     666A      9.638311   667A      9.646226   668A      9.647289  
     669A      9.663173   670A      9.677565   671A      9.692344  
     672A      9.705044   673A      9.964004   674A      9.966508  
     675A      9.980880   676A      9.991336   677A     10.137644  
     678A     10.151969   679A     10.205333   680A     10.225530  
     681A     10.234054   682A     10.247974   683A     10.295558  
     684A     10.302527   685A     10.319059   686A     10.321525  
     687A     10.658549   688A     10.660950   689A     10.717658  
     690A     10.730419   691A     11.828235   692A     11.834337  
     693A     11.857903   694A     11.863918   695A     14.405496  
     696A     14.430163   697A     18.809267   698A     18.810159  
     699A     18.877015   700A     18.887254   701A     19.054655  
     702A     19.069891   703A     19.073587   704A     19.102582  
     705A     65.837386   706A     65.877696   707A     65.913090  
     708A     65.915245   709A     65.945260   710A     65.983959  
     711A     66.866031   712A     66.898218   713A     66.906719  
     714A     66.929917   715A     94.186022   716A     94.218164  
     717A    126.228422   718A    126.229173   719A    126.335643  
     720A    126.366327   721A    126.456609   722A    126.481857  
     723A    126.494033   724A    126.535460  

    Final Occupation by Irrep:
              A 
    DOCC [     5 ]

  @DF-RHF Final Energy:  -198.82328722655225

   => Energetics <=

    Nuclear Repulsion Energy =              0.0000000000000000
    One-Electron Energy =                -271.1072908935496457
    Two-Electron Energy =                  72.2840036669974069
    Total Energy =                       -198.8232872265522246

Computation Completed


Properties will be evaluated at   0.000000,   0.000000,   0.000000 [a0]

Properties computed using the SCF density matrix

  Nuclear Dipole Moment: [e a0]
     X:   -12.3689      Y:    11.8490      Z:    -1.3501

  Electronic Dipole Moment: [e a0]
     X:    10.3083      Y:    -9.8750      Z:     1.1252

  Dipole Moment: [e a0]
     X:    -2.0606      Y:     1.9740      Z:    -0.2249     Total:     2.8624

  Dipole Moment: [D]
     X:    -5.2376      Y:     5.0174      Z:    -0.5717     Total:     7.2755


*** tstop() called on osmium at Sat Dec 19 13:26:01 2020
Module time:
	user time   =     197.36 seconds =       3.29 minutes
	system time =      26.26 seconds =       0.44 minutes
	total time  =         20 seconds =       0.33 minutes
Total time:
	user time   =    1094.58 seconds =      18.24 minutes
	system time =      94.73 seconds =       1.58 minutes
	total time  =        103 seconds =       1.72 minutes

  //>>>>>>>>>>>>>>>>>>>>>>>>>>>>>>>>>>>//
  //     Monomer B HF (Dimer Basis)    //
  //<<<<<<<<<<<<<<<<<<<<<<<<<<<<<<<<<<<//


*** tstart() called on osmium
*** at Sat Dec 19 13:26:01 2020

   => Loading Basis Set <=

    Name: DEF2-TZVP
    Role: ORBITAL
    Keyword: BASIS
    atoms 1                                      entry MG         line   327 file /home/eric/.pyenv/versions/miniconda3-4.7.12/envs/cclib_berquist_37/share/psi4/basis/def2-tzvp.gbs 
    atoms 2, 4, 26-27, 29-30, 32-33              entry O          line   189 file /home/eric/.pyenv/versions/miniconda3-4.7.12/envs/cclib_berquist_37/share/psi4/basis/def2-tzvp.gbs 
    atoms 3, 5, 9, 12, 15, 19, 22, 25, 28, 31    entry C          line   123 file /home/eric/.pyenv/versions/miniconda3-4.7.12/envs/cclib_berquist_37/share/psi4/basis/def2-tzvp.gbs 
    atoms 6-7, 10-11, 13-14, 16-17, 20-21, 23-24 entry H          line    15 file /home/eric/.pyenv/versions/miniconda3-4.7.12/envs/cclib_berquist_37/share/psi4/basis/def2-tzvp.gbs 
    atoms 8, 18                                  entry N          line   156 file /home/eric/.pyenv/versions/miniconda3-4.7.12/envs/cclib_berquist_37/share/psi4/basis/def2-tzvp.gbs 


         ---------------------------------------------------------
                                   SCF
               by Justin Turney, Rob Parrish, Andy Simmonett
                          and Daniel G. A. Smith
                              RHF Reference
                       12 Threads,    500 MiB Core
         ---------------------------------------------------------

  ==> Geometry <==

    Molecular point group: c1
    Full point group: C1

    Geometry (in Angstrom), charge = -4, multiplicity = 1:

       Center              X                  Y                   Z               Mass       
    ------------   -----------------  -----------------  -----------------  -----------------
      Gh(MG)         -0.545446733615     0.522518023500    -0.059535671302    23.985041697000
         O           -0.520566378515     0.559578651900     2.004204428498    15.994914619570
         C            0.592765565085     0.562144814600     2.608304702098    12.000000000000
         O            0.730869298785     0.545156853100     3.842817343298    15.994914619570
         C            1.861963169385     0.633504769500     1.761558348398    12.000000000000
         H            2.604941383585    -0.043580296000     2.190809105598     1.007825032230
         H            2.250216359385     1.645589201800     1.899415524798     1.007825032230
         N            1.669446961485     0.370625733100     0.333969951098    14.003074004430
         C            2.213483435285     1.432019148400    -0.503169524202    12.000000000000
         H            2.283436286685     1.074530059300    -1.532709554802     1.007825032230
         H            3.215683613785     1.744383335000    -0.195144627402     1.007825032230
         C            2.063203108585    -0.988768216800    -0.049496640402    12.000000000000
         H            2.148453140485    -1.028060256500    -1.136468496702     1.007825032230
         H            3.043286684985    -1.256967601600     0.360773578198     1.007825032230
         C            1.027004885885    -2.000472422700     0.421624381098    12.000000000000
         H            0.930852765985    -1.950624792800     1.507286731698     1.007825032230
         H            1.366993492685    -3.011781705300     0.171634980698     1.007825032230
         N           -0.283814690215    -1.711275409600    -0.169029410402    14.003074004430
         C           -1.425151939115    -2.205360891800     0.590429537498    12.000000000000
         H           -1.198437456015    -2.140769659200     1.656815482098     1.007825032230
         H           -1.664195675415    -3.249175303100     0.366770747798     1.007825032230
         C           -0.357533762715    -2.075883891800    -1.585613528702    12.000000000000
         H           -1.334699116015    -2.515341293100    -1.800414987902     1.007825032230
         H            0.386793538285    -2.835620566000    -1.837093698002     1.007825032230
         C           -0.212927179215    -0.907683053700    -2.559347231002    12.000000000000
         O           -0.017294914015    -1.180747142600    -3.755261850502    15.994914619570
         O           -0.338332789415     0.264165972300    -2.095011325802    15.994914619570
         C            1.292681448485     2.658485925900    -0.543469224102    12.000000000000
         O            1.790203262085     3.746229489600    -0.871669860902    15.994914619570
         O            0.063060935585     2.476007705200    -0.275017257002    15.994914619570
         C           -2.673780939815    -1.341230116000     0.371861355998    12.000000000000
         O           -3.780238678615    -1.852076945500     0.602835871798    15.994914619570
         O           -2.494413348415    -0.137339960800     0.003273904998    15.994914619570

  Running in c1 symmetry.

  Rotational constants: A =      0.01306  B =      0.01029  C =      0.00808 [cm^-1]
  Rotational constants: A =    391.38338  B =    308.33867  C =    242.18848 [MHz]
  Nuclear repulsion = 1711.884789460086495

  Charge       = -4
  Multiplicity = 1
  Electrons    = 154
  Nalpha       = 77
  Nbeta        = 77

  ==> Algorithm <==

  SCF Algorithm Type is DF.
  DIIS enabled.
  MOM disabled.
  Fractional occupation disabled.
  Guess Type is SAD.
  Energy threshold   = 1.00e-08
  Density threshold  = 1.00e-08
  Integral threshold = 0.00e+00

  ==> Primary Basis <==

  Basis Set: DEF2-TZVP
    Blend: DEF2-TZVP
    Number of shells: 280
    Number of basis function: 724
    Number of Cartesian functions: 827
    Spherical Harmonics?: true
    Max angular momentum: 3

   => Loading Basis Set <=

    Name: (DEF2-TZVP AUX)
    Role: JKFIT
    Keyword: DF_BASIS_SCF
    atoms 1                                      entry MG         line   581 file /home/eric/.pyenv/versions/miniconda3-4.7.12/envs/cclib_berquist_37/share/psi4/basis/def2-tzvp-jkfit.gbs 
    atoms 2, 4, 26-27, 29-30, 32-33              entry O          line   323 file /home/eric/.pyenv/versions/miniconda3-4.7.12/envs/cclib_berquist_37/share/psi4/basis/def2-tzvp-jkfit.gbs 
    atoms 3, 5, 9, 12, 15, 19, 22, 25, 28, 31    entry C          line   203 file /home/eric/.pyenv/versions/miniconda3-4.7.12/envs/cclib_berquist_37/share/psi4/basis/def2-tzvp-jkfit.gbs 
    atoms 6-7, 10-11, 13-14, 16-17, 20-21, 23-24 entry H          line    23 file /home/eric/.pyenv/versions/miniconda3-4.7.12/envs/cclib_berquist_37/share/psi4/basis/def2-tzvp-jkfit.gbs 
    atoms 8, 18                                  entry N          line   263 file /home/eric/.pyenv/versions/miniconda3-4.7.12/envs/cclib_berquist_37/share/psi4/basis/def2-tzvp-jkfit.gbs 

  ==> Pre-Iterations <==

   -------------------------------------------------------
    Irrep   Nso     Nmo     Nalpha   Nbeta   Ndocc  Nsocc
   -------------------------------------------------------
     A        724     724       0       0       0       0
   -------------------------------------------------------
    Total     724     724      77      77      77       0
   -------------------------------------------------------

  ==> Integral Setup <==

  ==> DiskDFJK: Density-Fitted J/K Matrices <==

    J tasked:                  Yes
    K tasked:                  Yes
    wK tasked:                  No
    OpenMP threads:             12
    Integrals threads:          12
    Memory [MiB]:              375
    Algorithm:                Disk
    Integral Cache:           LOAD
    Schwarz Cutoff:          1E-12
    Fitting Condition:       1E-10

   => Auxiliary Basis Set <=

  Basis Set: (DEF2-TZVP AUX)
    Blend: DEF2-TZVP-JKFIT
    Number of shells: 606
    Number of basis function: 1848
    Number of Cartesian functions: 2197
    Spherical Harmonics?: true
    Max angular momentum: 4

  Minimum eigenvalue in the overlap matrix is 7.7843559869E-05.
  Using Symmetric Orthogonalization.

  SCF Guess: Superposition of Atomic Densities via on-the-fly atomic UHF.

  ==> Iterations <==

                           Total Energy        Delta E     RMS |[F,P]|

   @DF-RHF iter SAD: -1091.40642058114031   -1.09141e+03   0.00000e+00 
   @DF-RHF iter   1: -1092.30366775047378   -8.97247e-01   2.01282e-03 DIIS
   @DF-RHF iter   2: -1092.83849509121637   -5.34827e-01   1.53867e-03 DIIS
   @DF-RHF iter   3: -1093.28868778870492   -4.50193e-01   2.48290e-04 DIIS
   @DF-RHF iter   4: -1093.30242197368261   -1.37342e-02   1.15490e-04 DIIS
   @DF-RHF iter   5: -1093.30591574383106   -3.49377e-03   2.06367e-05 DIIS
   @DF-RHF iter   6: -1093.30609206043027   -1.76317e-04   7.93171e-06 DIIS
   @DF-RHF iter   7: -1093.30612397742539   -3.19170e-05   2.20586e-06 DIIS
   @DF-RHF iter   8: -1093.30612812642357   -4.14900e-06   9.32631e-07 DIIS
   @DF-RHF iter   9: -1093.30612878133206   -6.54908e-07   4.59985e-07 DIIS
   @DF-RHF iter  10: -1093.30612892400518   -1.42673e-07   1.49550e-07 DIIS
   @DF-RHF iter  11: -1093.30612894242677   -1.84216e-08   5.63201e-08 DIIS
   @DF-RHF iter  12: -1093.30612894412866   -1.70189e-09   1.93551e-08 DIIS
   @DF-RHF iter  13: -1093.30612894430283   -1.74168e-10   6.33097e-09 DIIS
  Energy and wave function converged.


  ==> Post-Iterations <==

    Orbital Energies [Eh]
    ---------------------

    Doubly Occupied:                                                      

       1A    -19.983779     2A    -19.983631     3A    -19.976011  
       4A    -19.975587     5A    -19.947936     6A    -19.947809  
       7A    -19.938286     8A    -19.938051     9A    -15.063496  
      10A    -15.063489    11A    -10.807692    12A    -10.807684  
      13A    -10.802797    14A    -10.802138    15A    -10.800876  
      16A    -10.800604    17A    -10.775080    18A    -10.775077  
      19A    -10.767271    20A    -10.767088    21A     -0.857750  
      22A     -0.857149    23A     -0.848029    24A     -0.847691  
      25A     -0.763355    26A     -0.740927    27A     -0.731706  
      28A     -0.730833    29A     -0.720970    30A     -0.716064  
      31A     -0.557234    32A     -0.497355    33A     -0.495068  
      34A     -0.447622    35A     -0.383487    36A     -0.331551  
      37A     -0.232576    38A     -0.223676    39A     -0.213562  
      40A     -0.211176    41A     -0.193528    42A     -0.177006  
      43A     -0.151141    44A     -0.143485    45A     -0.142777  
      46A     -0.125925    47A     -0.123255    48A     -0.109947  
      49A     -0.108359    50A     -0.089138    51A     -0.084929  
      52A     -0.078523    53A     -0.071810    54A     -0.069668  
      55A     -0.059876    56A     -0.051947    57A     -0.044534  
      58A     -0.039364    59A     -0.027701    60A     -0.009602  
      61A     -0.005112    62A     -0.003835    63A     -0.001667  
      64A      0.085486    65A      0.086340    66A      0.103583  
      67A      0.107907    68A      0.124470    69A      0.127626  
      70A      0.127734    71A      0.131284    72A      0.137184  
      73A      0.146341    74A      0.148550    75A      0.149292  
      76A      0.150704    77A      0.152450  

    Virtual:                                                              

      78A      0.533742    79A      0.559076    80A      0.559325  
      81A      0.588091    82A      0.593219    83A      0.600391  
      84A      0.618425    85A      0.633021    86A      0.633730  
      87A      0.642074    88A      0.647014    89A      0.678027  
      90A      0.681899    91A      0.690396    92A      0.702106  
      93A      0.704881    94A      0.712593    95A      0.722090  
      96A      0.735229    97A      0.739573    98A      0.743818  
      99A      0.750861   100A      0.766150   101A      0.769239  
     102A      0.774979   103A      0.791488   104A      0.791752  
     105A      0.796161   106A      0.814638   107A      0.817326  
     108A      0.828683   109A      0.841762   110A      0.846311  
     111A      0.852632   112A      0.862013   113A      0.869392  
     114A      0.880388   115A      0.892527   116A      0.902654  
     117A      0.904413   118A      0.915334   119A      0.923822  
     120A      0.935563   121A      0.937668   122A      0.940250  
     123A      0.951146   124A      0.960853   125A      0.962083  
     126A      0.965867   127A      0.973577   128A      0.981998  
     129A      0.988756   130A      0.991579   131A      0.997079  
     132A      0.998014   133A      1.007012   134A      1.007857  
     135A      1.015584   136A      1.017404   137A      1.024627  
     138A      1.038918   139A      1.041702   140A      1.042748  
     141A      1.051945   142A      1.054235   143A      1.066092  
     144A      1.073227   145A      1.075098   146A      1.085540  
     147A      1.092891   148A      1.098244   149A      1.102399  
     150A      1.106237   151A      1.110753   152A      1.114384  
     153A      1.116666   154A      1.130639   155A      1.139280  
     156A      1.141221   157A      1.149677   158A      1.153871  
     159A      1.159776   160A      1.170328   161A      1.182136  
     162A      1.189841   163A      1.191651   164A      1.210075  
     165A      1.218943   166A      1.224607   167A      1.232571  
     168A      1.245574   169A      1.250624   170A      1.262806  
     171A      1.263867   172A      1.273710   173A      1.275340  
     174A      1.279925   175A      1.285651   176A      1.290669  
     177A      1.302497   178A      1.303419   179A      1.311361  
     180A      1.322178   181A      1.329733   182A      1.334398  
     183A      1.338669   184A      1.342012   185A      1.352474  
     186A      1.355610   187A      1.368346   188A      1.374409  
     189A      1.377442   190A      1.404547   191A      1.416797  
     192A      1.422656   193A      1.433449   194A      1.441014  
     195A      1.447063   196A      1.468286   197A      1.470549  
     198A      1.487743   199A      1.493459   200A      1.498158  
     201A      1.500511   202A      1.527267   203A      1.530566  
     204A      1.536642   205A      1.538096   206A      1.547174  
     207A      1.552734   208A      1.556354   209A      1.568242  
     210A      1.576420   211A      1.581814   212A      1.584655  
     213A      1.594251   214A      1.595930   215A      1.615839  
     216A      1.635709   217A      1.644318   218A      1.651354  
     219A      1.653086   220A      1.654405   221A      1.669422  
     222A      1.672194   223A      1.696040   224A      1.697817  
     225A      1.712233   226A      1.722018   227A      1.726454  
     228A      1.727695   229A      1.751033   230A      1.764686  
     231A      1.773728   232A      1.784579   233A      1.792442  
     234A      1.799761   235A      1.808413   236A      1.818763  
     237A      1.823123   238A      1.830812   239A      1.835024  
     240A      1.840602   241A      1.862672   242A      1.874923  
     243A      1.878446   244A      1.878892   245A      1.895798  
     246A      1.903313   247A      1.918034   248A      1.918690  
     249A      1.930945   250A      1.939368   251A      1.944501  
     252A      1.952646   253A      1.965311   254A      1.983491  
     255A      2.006991   256A      2.018659   257A      2.025207  
     258A      2.031904   259A      2.042271   260A      2.050098  
     261A      2.091182   262A      2.116868   263A      2.123313  
     264A      2.124518   265A      2.147663   266A      2.155387  
     267A      2.158230   268A      2.177122   269A      2.179713  
     270A      2.193019   271A      2.205240   272A      2.205772  
     273A      2.238073   274A      2.249852   275A      2.260032  
     276A      2.260745   277A      2.278587   278A      2.285283  
     279A      2.292116   280A      2.303377   281A      2.308811  
     282A      2.314263   283A      2.329783   284A      2.332992  
     285A      2.342926   286A      2.351574   287A      2.371194  
     288A      2.374071   289A      2.380317   290A      2.384902  
     291A      2.389677   292A      2.398182   293A      2.405541  
     294A      2.416865   295A      2.428627   296A      2.432107  
     297A      2.434530   298A      2.443265   299A      2.457124  
     300A      2.464312   301A      2.470937   302A      2.479190  
     303A      2.495788   304A      2.501074   305A      2.503834  
     306A      2.512451   307A      2.542079   308A      2.551688  
     309A      2.553101   310A      2.572435   311A      2.578266  
     312A      2.608964   313A      2.612418   314A      2.638799  
     315A      2.639461   316A      2.654368   317A      2.657126  
     318A      2.679203   319A      2.682372   320A      2.690776  
     321A      2.702980   322A      2.711550   323A      2.721403  
     324A      2.722510   325A      2.757144   326A      2.769793  
     327A      2.786476   328A      2.789788   329A      2.794667  
     330A      2.808953   331A      2.811550   332A      2.830402  
     333A      2.832415   334A      2.851757   335A      2.859151  
     336A      2.865200   337A      2.874765   338A      2.884890  
     339A      2.892624   340A      2.898400   341A      2.914640  
     342A      2.916173   343A      2.920003   344A      2.931509  
     345A      2.934990   346A      2.940036   347A      2.956532  
     348A      2.971213   349A      2.977584   350A      2.994789  
     351A      2.998512   352A      3.002899   353A      3.008291  
     354A      3.022003   355A      3.025130   356A      3.065589  
     357A      3.066910   358A      3.073677   359A      3.088882  
     360A      3.091997   361A      3.106486   362A      3.111551  
     363A      3.118146   364A      3.120628   365A      3.129790  
     366A      3.155284   367A      3.163371   368A      3.165735  
     369A      3.173850   370A      3.196060   371A      3.202736  
     372A      3.209872   373A      3.232160   374A      3.233057  
     375A      3.239325   376A      3.253858   377A      3.267054  
     378A      3.270664   379A      3.279105   380A      3.282707  
     381A      3.298364   382A      3.314630   383A      3.315680  
     384A      3.333888   385A      3.344201   386A      3.348394  
     387A      3.359079   388A      3.368167   389A      3.376400  
     390A      3.402991   391A      3.407546   392A      3.419933  
     393A      3.428292   394A      3.444391   395A      3.446919  
     396A      3.461143   397A      3.464073   398A      3.477600  
     399A      3.496460   400A      3.504536   401A      3.527810  
     402A      3.532616   403A      3.536375   404A      3.540712  
     405A      3.542984   406A      3.559284   407A      3.573925  
     408A      3.584526   409A      3.593480   410A      3.598391  
     411A      3.599377   412A      3.616264   413A      3.627104  
     414A      3.637033   415A      3.651371   416A      3.682765  
     417A      3.687613   418A      3.690076   419A      3.737478  
     420A      3.764798   421A      3.773774   422A      3.790741  
     423A      3.792371   424A      3.802701   425A      3.807503  
     426A      3.813255   427A      3.822260   428A      3.823281  
     429A      3.826759   430A      3.840885   431A      3.865690  
     432A      3.867386   433A      3.882265   434A      3.888300  
     435A      3.894963   436A      3.895872   437A      3.909632  
     438A      3.915515   439A      3.924275   440A      3.925677  
     441A      3.935204   442A      3.940357   443A      3.943079  
     444A      3.962243   445A      3.966844   446A      3.981414  
     447A      3.989789   448A      3.995702   449A      3.998942  
     450A      4.008271   451A      4.009062   452A      4.019235  
     453A      4.026986   454A      4.035956   455A      4.042541  
     456A      4.049111   457A      4.060568   458A      4.064051  
     459A      4.075424   460A      4.081498   461A      4.086507  
     462A      4.095019   463A      4.097991   464A      4.122637  
     465A      4.127198   466A      4.136895   467A      4.159799  
     468A      4.163851   469A      4.175124   470A      4.181556  
     471A      4.182205   472A      4.186156   473A      4.196798  
     474A      4.206408   475A      4.213700   476A      4.223337  
     477A      4.241772   478A      4.247253   479A      4.259027  
     480A      4.259861   481A      4.282478   482A      4.284736  
     483A      4.285793   484A      4.293477   485A      4.307904  
     486A      4.310060   487A      4.326070   488A      4.331427  
     489A      4.341802   490A      4.348591   491A      4.361777  
     492A      4.371064   493A      4.371740   494A      4.383599  
     495A      4.395674   496A      4.398775   497A      4.411397  
     498A      4.413749   499A      4.429123   500A      4.435113  
     501A      4.444996   502A      4.457592   503A      4.462378  
     504A      4.468739   505A      4.480247   506A      4.487227  
     507A      4.501859   508A      4.506106   509A      4.513597  
     510A      4.520703   511A      4.544944   512A      4.550588  
     513A      4.579160   514A      4.586446   515A      4.608800  
     516A      4.615280   517A      4.626784   518A      4.630162  
     519A      4.638052   520A      4.649349   521A      4.677524  
     522A      4.704053   523A      4.727461   524A      4.729808  
     525A      4.752407   526A      4.782442   527A      4.786619  
     528A      4.790751   529A      4.797148   530A      4.811988  
     531A      4.816114   532A      4.825414   533A      4.858169  
     534A      4.866570   535A      4.880153   536A      4.892376  
     537A      4.902138   538A      4.927045   539A      4.950871  
     540A      4.972276   541A      4.983294   542A      5.012312  
     543A      5.014892   544A      5.015620   545A      5.063659  
     546A      5.079720   547A      5.091855   548A      5.150208  
     549A      5.176381   550A      5.194395   551A      5.255494  
     552A      5.295294   553A      5.297926   554A      5.315559  
     555A      5.326556   556A      5.340183   557A      5.379110  
     558A      5.388283   559A      5.390747   560A      5.401287  
     561A      5.413227   562A      5.437174   563A      5.472252  
     564A      5.544066   565A      5.552764   566A      5.584663  
     567A      5.598179   568A      5.604506   569A      5.614089  
     570A      5.646104   571A      5.663829   572A      5.695107  
     573A      5.698045   574A      5.737108   575A      5.840181  
[...]
     552A      5.715260   553A      5.829449   554A      5.857426  
     555A      6.000913   556A      6.027558   557A      6.054149  
     558A      6.056715   559A      6.135393   560A      6.152561  
     561A      6.159959   562A      6.161130   563A      6.170018  
     564A      6.176214   565A      6.186506   566A      6.189435  
     567A      6.190899   568A      6.201177   569A      6.202071  
     570A      6.220776   571A      6.222752   572A      6.223897  
     573A      6.231805   574A      6.234436   575A      6.251456  
     576A      6.251767   577A      6.277563   578A      6.282282  
     579A      6.314244   580A      6.316279   581A      6.342153  
     582A      6.342689   583A      6.355522   584A      6.364659  
     585A      6.372413   586A      6.380736   587A      6.381401  
     588A      6.391795   589A      6.449885   590A      6.492883  
     591A      6.562248   592A      6.566872   593A      6.571526  
     594A      6.571888   595A      6.585218   596A      6.585955  
     597A      6.587945   598A      6.594547   599A      6.628638  
     600A      6.654115   601A      6.659583   602A      6.660384  
     603A      6.663870   604A      6.668330   605A      6.729215  
     606A      6.734809   607A      6.840929   608A      6.849163  
     609A      6.877794   610A      6.896268   611A      6.897491  
     612A      6.899801   613A      7.096072   614A      7.096791  
     615A      7.103503   616A      7.113733   617A      7.145185  
     618A      7.147572   619A      7.157483   620A      7.159947  
     621A      7.201078   622A      7.202751   623A      7.207224  
     624A      7.211689   625A      7.423929   626A      7.426371  
     627A      7.428707   628A      7.430689   629A      7.441837  
     630A      7.443387   631A      7.447565   632A      7.450352  
     633A      7.522966   634A      7.526188   635A      7.527088  
     636A      7.530286   637A      7.569642   638A      7.572476  
     639A      7.573901   640A      7.586655   641A      7.602480  
     642A      7.616898   643A      7.640677   644A      7.652170  
     645A      7.843649   646A      7.850720   647A      7.856541  
     648A      7.859177   649A      7.863287   650A      7.864509  
     651A      7.871170   652A      7.873270   653A      7.961699  
     654A      7.964895   655A      7.968501   656A      7.981088  
     657A      8.038920   658A      8.059047   659A      8.061383  
     660A      8.062151   661A      8.198297   662A      8.211715  
     663A      8.222334   664A      8.224142   665A      8.231295  
     666A      8.233287   667A      8.248590   668A      8.252683  
     669A      8.298078   670A      8.313583   671A      8.323797  
     672A      8.324023   673A     24.111496   674A     24.146189  
     675A     24.166148   676A     24.189866   677A     24.205210  
     678A     24.226922   679A     25.123151   680A     25.135629  
     681A     25.148990   682A     25.158994   683A     34.660571  
     684A     34.673563   685A     46.003125   686A     46.006237  
     687A     46.022784   688A     46.036481   689A     46.042556  
     690A     46.075464   691A     46.128324   692A     46.156365  

    Final Occupation by Irrep:
              A 
    DOCC [    77 ]

  @DF-RHF Final Energy: -1093.30265988690735

   => Energetics <=

    Nuclear Repulsion Energy =           1711.8847894600864947
    One-Electron Energy =               -4992.0293568076185693
    Two-Electron Energy =                2186.8419074606244976
    Total Energy =                      -1093.3026598869073496

Computation Completed


Properties will be evaluated at   0.000000,   0.000000,   0.000000 [a0]

Properties computed using the SCF density matrix

  Nuclear Dipole Moment: [e a0]
     X:    25.4911      Y:   -24.5355      Z:     2.8945

  Electronic Dipole Moment: [e a0]
     X:   -21.7466      Y:    20.9082      Z:    -2.4488

  Dipole Moment: [e a0]
     X:     3.7445      Y:    -3.6273      Z:     0.4457     Total:     5.2323

  Dipole Moment: [D]
     X:     9.5176      Y:    -9.2197      Z:     1.1329     Total:    13.2993


*** tstop() called on osmium at Sat Dec 19 13:28:16 2020
Module time:
	user time   =     731.81 seconds =      12.20 minutes
	system time =      51.27 seconds =       0.85 minutes
	total time  =         67 seconds =       1.12 minutes
Total time:
	user time   =    2559.62 seconds =      42.66 minutes
	system time =     205.57 seconds =       3.43 minutes
	total time  =        238 seconds =       3.97 minutes

   => Loading Basis Set <=

    Name: (DEF2-TZVP AUX)
    Role: RIFIT
    Keyword: DF_BASIS_SAPT
    atoms 1                                      entry MG         line   474 file /home/eric/.pyenv/versions/miniconda3-4.7.12/envs/cclib_berquist_37/share/psi4/basis/def2-tzvp-ri.gbs 
    atoms 2, 4, 26-27, 29-30, 32-33              entry O          line   273 file /home/eric/.pyenv/versions/miniconda3-4.7.12/envs/cclib_berquist_37/share/psi4/basis/def2-tzvp-ri.gbs 
    atoms 3, 5, 9, 12, 15, 19, 22, 25, 28, 31    entry C          line   179 file /home/eric/.pyenv/versions/miniconda3-4.7.12/envs/cclib_berquist_37/share/psi4/basis/def2-tzvp-ri.gbs 
    atoms 6-7, 10-11, 13-14, 16-17, 20-21, 23-24 entry H          line    22 file /home/eric/.pyenv/versions/miniconda3-4.7.12/envs/cclib_berquist_37/share/psi4/basis/def2-tzvp-ri.gbs 
    atoms 8, 18                                  entry N          line   226 file /home/eric/.pyenv/versions/miniconda3-4.7.12/envs/cclib_berquist_37/share/psi4/basis/def2-tzvp-ri.gbs 


  //>>>>>>>>>>>>>>>>>>>>>>>>>>>>>>>>>>>//
  //        SAPT Charge Transfer       //
  //<<<<<<<<<<<<<<<<<<<<<<<<<<<<<<<<<<<//


  //>>>>>>>>>>>>>>>>>>>>>>>>>>>>>>>>>>>//
  //          Dimer Basis SAPT         //
  //<<<<<<<<<<<<<<<<<<<<<<<<<<<<<<<<<<<//


*** tstart() called on osmium
*** at Sat Dec 19 13:28:16 2020

        SAPT0  
    Ed Hohenstein
     6 June 2009

      Orbital Information
  --------------------------
    NSO        =       724
    NMO        =       724
    NRI        =      1792
    NOCC A     =         5
    NOCC B     =        77
    FOCC A     =         0
    FOCC B     =         0
    NVIR A     =       719
    NVIR B     =       647

    Elst10,r            =    -1.443790971212 [Eh]
    Exch10              =     0.102023543336 [Eh]
    Exch10 (S^2)        =     0.101513722124 [Eh]

    Iter     Energy [mEh]          dE [mEh]         Residual      Time [s]
       1      -0.14876141       0.148761414       2.773557142             1
       2      -0.15724479       0.008483380       0.515354916             3
       3      -0.16050762       0.003262823       0.047136545             5
       4      -0.16043324      -0.000074374       0.005742090             6
       5      -0.16041991      -0.000013336       0.000334163             8
       6      -0.16042082       0.000000911       0.000029074             9
       7      -0.16042077      -0.000000047       0.000001964            11
       8      -0.16042077       0.000000002       0.000000092            13

    CHF Iterations converged


    Iter     Energy [mEh]          dE [mEh]         Residual      Time [s]
       1    -547.72826117     547.728261171     343.029960554             2
       2    -447.37304170    -100.355219469      62.248560488             5
       3    -457.72252262      10.349480920      25.603269804             7
       4    -468.41615315      10.693630531       7.882150233            10
       5    -469.06917901       0.653025857       4.290395903            12
       6    -467.83911498      -1.230064033       1.497396601            15
       7    -467.80535442      -0.033760557       0.496610305            17
       8    -467.89840850       0.093054085       0.163642430            20
       9    -467.91003110       0.011622591       0.049125257            23
      10    -467.90490763      -0.005123468       0.017154700            25
      11    -467.90329427      -0.001613354       0.005810437            28
      12    -467.90342253       0.000128258       0.002590696            30
      13    -467.90380210       0.000379569       0.000980238            33
      14    -467.90370951      -0.000092595       0.000398458            35
      15    -467.90368258      -0.000026923       0.000115242            38
      16    -467.90369235       0.000009769       0.000039073            40
      17    -467.90369311       0.000000761       0.000012102            43
      18    -467.90369247      -0.000000647       0.000004006            46
      19    -467.90369233      -0.000000132       0.000001710            48
      20    -467.90369239       0.000000059       0.000000708            51

    CHF Iterations converged

    Ind20,r (A<-B)      =    -0.000160420772 [Eh]
    Ind20,r (B<-A)      =    -0.467903692394 [Eh]
    Ind20,r             =    -0.468064113166 [Eh]
    Exch-Ind20,r (A<-B) =     0.000135780734 [Eh]
    Exch-Ind20,r (B<-A) =     0.155866346948 [Eh]
    Exch-Ind20,r        =     0.156002127682 [Eh]
    Disp20              =    -0.008087501023 [Eh]
    Disp20 (SS)         =    -0.004043750511 [Eh]
    Disp20 (OS)         =    -0.004043750511 [Eh]
    Exch-Disp20         =     0.002037356297 [Eh]
    Exch-Disp20 (SS)    =     0.001204624486 [Eh]
    Exch-Disp20 (OS)    =     0.000832731811 [Eh]

    SAPT Results 
  --------------------------------------------------------------------------------------------------------
    Electrostatics              -1443.79097121 [mEh]    -905.99251259 [kcal/mol]   -3790.67267268 [kJ/mol]
      Elst10,r                  -1443.79097121 [mEh]    -905.99251259 [kcal/mol]   -3790.67267268 [kJ/mol]

    Exchange                      102.02354334 [mEh]      64.02073999 [kcal/mol]     267.86277613 [kJ/mol]
      Exch10                      102.02354334 [mEh]      64.02073999 [kcal/mol]     267.86277613 [kJ/mol]
      Exch10(S^2)                 101.51372212 [mEh]      63.70082235 [kcal/mol]     266.52424072 [kJ/mol]

    Induction                    -303.65367483 [mEh]    -190.54555770 [kcal/mol]    -797.24261343 [kJ/mol]
      Ind20,r                    -468.06411317 [mEh]    -293.71466535 [kcal/mol]   -1228.90215981 [kJ/mol]
      Exch-Ind20,r                156.00212768 [mEh]      97.89281305 [kcal/mol]     409.58352980 [kJ/mol]
      delta HF,r (2)                8.40831066 [mEh]       5.27629459 [kcal/mol]      22.07601658 [kJ/mol]

    Dispersion                     -6.05014473 [mEh]      -3.79652313 [kcal/mol]     -15.88465279 [kJ/mol]
      Disp20                       -8.08750102 [mEh]      -5.07498351 [kcal/mol]     -21.23373101 [kJ/mol]
      Exch-Disp20                   2.03735630 [mEh]       1.27846038 [kcal/mol]       5.34907822 [kJ/mol]
      Disp20 (SS)                  -4.04375051 [mEh]      -2.53749176 [kcal/mol]     -10.61686551 [kJ/mol]
      Disp20 (OS)                  -4.04375051 [mEh]      -2.53749176 [kcal/mol]     -10.61686551 [kJ/mol]
      Exch-Disp20 (SS)              1.20462449 [mEh]       0.75591328 [kcal/mol]       3.16274115 [kJ/mol]
      Exch-Disp20 (OS)              0.83273181 [mEh]       0.52254710 [kcal/mol]       2.18633707 [kJ/mol]

  Total HF                      -1645.42110270 [mEh]   -1032.51733030 [kcal/mol]   -4320.05250998 [kJ/mol]
  Total SAPT0                   -1651.47124743 [mEh]   -1036.31385343 [kcal/mol]   -4335.93716277 [kJ/mol]

  Special recipe for scaled SAPT0 (see Manual):
    Electrostatics sSAPT0       -1443.79097121 [mEh]    -905.99251259 [kcal/mol]   -3790.67267268 [kJ/mol]
    Exchange sSAPT0               102.02354334 [mEh]      64.02073999 [kcal/mol]     267.86277613 [kJ/mol]
    Induction sSAPT0             -301.29143379 [mEh]    -189.06322907 [kcal/mol]    -791.04055044 [kJ/mol]
    Dispersion sSAPT0              -6.01929433 [mEh]      -3.77716422 [kcal/mol]     -15.80365510 [kJ/mol]
  Total sSAPT0                  -1649.07815600 [mEh]   -1034.81216589 [kcal/mol]   -4329.65410209 [kJ/mol]
  --------------------------------------------------------------------------------------------------------

*** tstop() called on osmium at Sat Dec 19 13:31:40 2020
Module time:
	user time   =    2116.71 seconds =      35.28 minutes
	system time =     151.54 seconds =       2.53 minutes
	total time  =        204 seconds =       3.40 minutes
Total time:
	user time   =    4678.25 seconds =      77.97 minutes
	system time =     357.32 seconds =       5.96 minutes
	total time  =        442 seconds =       7.37 minutes

  //>>>>>>>>>>>>>>>>>>>>>>>>>>>>>>>>>>>//
  //         Monomer Basis SAPT        //
  //<<<<<<<<<<<<<<<<<<<<<<<<<<<<<<<<<<<//


*** tstart() called on osmium
*** at Sat Dec 19 13:31:40 2020

        SAPT0  
    Ed Hohenstein
     6 June 2009

      Orbital Information
  --------------------------
    NSO        =       724
    NSO A      =        32
    NSO B      =       692
    NMO        =       724
    NMO A      =        32
    NMO B      =       692
    NRI        =      1792
    NOCC A     =         5
    NOCC B     =        77
    FOCC A     =         0
    FOCC B     =         0
    NVIR A     =        27
    NVIR B     =       615

    Elst10,r            =    -1.457038178827 [Eh]
    Exch10              =     0.109053355638 [Eh]
    Exch10 (S^2)        =     0.108435712191 [Eh]

    Iter     Energy [mEh]          dE [mEh]         Residual      Time [s]
       1      -0.10411223       0.104112230       2.645335722             0
       2      -0.10785038       0.003738146       0.465019867             0
       3      -0.11082232       0.002971940       0.036137817             0
       4      -0.11082290       0.000000581       0.005117725             0
       5      -0.11081064      -0.000012258       0.000264239             0
       6      -0.11081101       0.000000372       0.000016163             0
       7      -0.11081100      -0.000000007       0.000001091             0
       8      -0.11081100       0.000000000       0.000000057             0

    CHF Iterations converged


    Iter     Energy [mEh]          dE [mEh]         Residual      Time [s]
       1    -462.63729027     462.637290270     334.567324121             3
       2    -361.91426245    -100.723027816      58.027305565             5
       3    -367.05103741       5.136774960      25.367269227             7
       4    -376.56284260       9.511805185       7.917020133            10
       5    -377.42464279       0.861800193       4.147568028            12
       6    -376.41636621      -1.008276587       1.500799805            15
       7    -376.34974078      -0.066625425       0.453657338            17
       8    -376.41874877       0.069007988       0.154813602            20
       9    -376.43129997       0.012551200       0.044434625            22
      10    -376.42859666      -0.002703306       0.016496941            24
      11    -376.42709977      -0.001496894       0.005554627            27
      12    -376.42710476       0.000004989       0.002598955            29
      13    -376.42742038       0.000315622       0.000981491            32
      14    -376.42735336      -0.000067019       0.000375129            34
      15    -376.42732894      -0.000024420       0.000115919            37
      16    -376.42733661       0.000007673       0.000037155            39
      17    -376.42733763       0.000001013       0.000011889            41
      18    -376.42733714      -0.000000488       0.000003897            44
      19    -376.42733701      -0.000000130       0.000001671            46
      20    -376.42733705       0.000000043       0.000000683            49

    CHF Iterations converged

    Ind20,r (A<-B)      =    -0.000110811005 [Eh]
    Ind20,r (B<-A)      =    -0.376427337052 [Eh]
    Ind20,r             =    -0.376538148057 [Eh]
    Exch-Ind20,r (A<-B) =     0.000096225706 [Eh]
    Exch-Ind20,r (B<-A) =     0.072698469726 [Eh]
    Exch-Ind20,r        =     0.072794695432 [Eh]
    Disp20              =    -0.005589312877 [Eh]
    Disp20 (SS)         =    -0.002794656438 [Eh]
    Disp20 (OS)         =    -0.002794656438 [Eh]
    Exch-Disp20         =     0.000591987067 [Eh]
    Exch-Disp20 (SS)    =     0.000246215790 [Eh]
    Exch-Disp20 (OS)    =     0.000345771277 [Eh]

    SAPT Results 
  --------------------------------------------------------------------------------------------------------
    Electrostatics              -1457.03817883 [mEh]    -914.30526087 [kcal/mol]   -3825.45321148 [kJ/mol]
      Elst10,r                  -1457.03817883 [mEh]    -914.30526087 [kcal/mol]   -3825.45321148 [kJ/mol]

    Exchange                      109.05335564 [mEh]      68.43201381 [kcal/mol]     286.31954578 [kJ/mol]
      Exch10                      109.05335564 [mEh]      68.43201381 [kcal/mol]     286.31954578 [kJ/mol]
      Exch10(S^2)                 108.43571219 [mEh]      68.04443670 [kcal/mol]     284.69792314 [kJ/mol]

    Induction                    -301.18493034 [mEh]    -188.99639715 [kcal/mol]    -790.76092566 [kJ/mol]
      Ind20,r                    -376.53814806 [mEh]    -236.28125514 [kcal/mol]    -988.60077152 [kJ/mol]
      Exch-Ind20,r                 72.79469543 [mEh]      45.67936102 [kcal/mol]     191.12244653 [kJ/mol]
      delta HF,r (2)                2.55852229 [mEh]       1.60549697 [kcal/mol]       6.71739934 [kJ/mol]

    Dispersion                     -4.99732581 [mEh]      -3.13586929 [kcal/mol]     -13.12047711 [kJ/mol]
      Disp20                       -5.58931288 [mEh]      -3.50734678 [kcal/mol]     -14.67473894 [kJ/mol]
      Exch-Disp20                   0.59198707 [mEh]       0.37147749 [kcal/mol]       1.55426183 [kJ/mol]
      Disp20 (SS)                  -2.79465644 [mEh]      -1.75367339 [kcal/mol]      -7.33736947 [kJ/mol]
      Disp20 (OS)                  -2.79465644 [mEh]      -1.75367339 [kcal/mol]      -7.33736947 [kJ/mol]
      Exch-Disp20 (SS)              0.24621579 [mEh]       0.15450274 [kcal/mol]       0.64643947 [kJ/mol]
      Exch-Disp20 (OS)              0.34577128 [mEh]       0.21697475 [kcal/mol]       0.90782236 [kJ/mol]

  Total HF                      -1649.16975352 [mEh]   -1034.86964420 [kcal/mol]   -4329.89459135 [kJ/mol]
  Total SAPT0                   -1654.16707933 [mEh]   -1038.00551349 [kcal/mol]   -4343.01506846 [kJ/mol]

  Special recipe for scaled SAPT0 (see Manual):
    Electrostatics sSAPT0       -1457.03817883 [mEh]    -914.30526087 [kcal/mol]   -3825.45321148 [kJ/mol]
    Exchange sSAPT0               109.05335564 [mEh]      68.43201381 [kcal/mol]     286.31954578 [kJ/mol]
    Induction sSAPT0             -299.93392876 [mEh]    -188.21138180 [kcal/mol]    -787.47642147 [kJ/mol]
    Dispersion sSAPT0              -4.98715231 [mEh]      -3.12948532 [kcal/mol]     -13.09376659 [kJ/mol]
  Total sSAPT0                  -1652.90590426 [mEh]   -1037.21411418 [kcal/mol]   -4339.70385375 [kJ/mol]
  --------------------------------------------------------------------------------------------------------

*** tstop() called on osmium at Sat Dec 19 13:34:01 2020
Module time:
	user time   =    1434.29 seconds =      23.90 minutes
	system time =     110.92 seconds =       1.85 minutes
	total time  =        141 seconds =       2.35 minutes
Total time:
	user time   =    6112.54 seconds =     101.88 minutes
	system time =     468.24 seconds =       7.80 minutes
	total time  =        583 seconds =       9.72 minutes


    SAPT Charge Transfer Analysis
  ------------------------------------------------------------------------------------------------
    SAPT Induction (Dimer Basis)     -312.0620 [mEh]    -195.8219 [kcal/mol]    -819.3186 [kJ/mol]
    SAPT Induction (Monomer Basis)   -303.7435 [mEh]    -190.6019 [kcal/mol]    -797.4783 [kJ/mol]
    SAPT Charge Transfer               -8.3185 [mEh]      -5.2200 [kcal/mol]     -21.8403 [kJ/mol]


    Psi4 stopped on: Saturday, 19 December 2020 01:34PM
    Psi4 wall time for execution: 0:09:43.43

*** Psi4 exiting successfully. Buy a developer a beer!
