                  Welcome to Q-Chem
     A Quantum Leap Into The Future Of Chemistry


 Q-Chem 5.3 (devel), Q-Chem, Inc., Pleasanton, CA (2020)

 Yihan Shao,  Zhengting Gan,  E. Epifanovsky,  A. T. B. Gilbert,  M. Wormit,  
 J. Kussmann,  A. W. Lange,  A. Behn,  Jia Deng,  Xintian Feng,  D. Ghosh,  
 M. Goldey,  P. R. Horn,  L. D. Jacobson,  I. Kaliman,  T. Kus,  A. Landau,  
 Jie Liu,  E. I. Proynov,  R. M. Richard,  R. P. Steele,  E. J. Sundstrom,  
 H. L. Woodcock III,  P. M. Zimmerman,  D. Zuev,  B. Alam,  B. Albrecht,  
 A. Aldossary,  E. Alguire,  S. A. Baeppler,  D. Barton,  Z. Benda,  
 Y. A. Bernard,  E. J. Berquist,  K. B. Bravaya,  H. Burton,  K. Carter-Fenk,  
 D. Casanova,  Chun-Min Chang,  Yunqing Chen,  A. Chien,  K. D. Closser,  
 M. P. Coons,  S. Coriani,  S. Dasgupta,  A. L. Dempwolff,  M. Diedenhofen,  
 Hainam Do,  R. G. Edgar,  Po-Tung Fang,  S. Faraji,  S. Fatehi,  
 Qingguo Feng,  J. Fosso-Tande,  J. Gayvert,  Qinghui Ge,  A. Ghysels,  
 G. Gidofalvi,  J. Gomes,  J. Gonthier,  S. Gulania,  A. Gunina,  D. Hait,  
 M. W. D. Hanson-Heine,  S. Hammes-Schiffer,  P. H. P. Harbach,  
 A. W. Hauser,  M. F. Herbst,  J. E. Herr,  E. G. Hohenstein,  Z. C. Holden,  
 S. Houck,  Kerwin Hui,  B. C. Huynh,  M. Ivanov,  T.-C. Jagau,  Hyunjun Ji,  
 B. Kaduk,  K. Khistyaev,  Jaehoon Kim,  P. Klunzinger,  K. Koh,  
 D. Kosenkov,  L. Koulias,  T. Kowalczyk,  C. M. Krauter,  A. Kunitsa,  
 Ka Un Lao,  A. Laurent,  K. V. Lawler,  Joonho Lee,  D. Lefrancois,  
 S. Lehtola,  D. S. Levine,  Yi-Pei Li,  You-Sheng Lin,  Fenglai Liu,  
 Kuan-Yu Liu,  E. Livshits,  M. Loipersberger,  A. Luenser,  A. Manjanath,  
 P. Manohar,  E. Mansoor,  S. F. Manzer,  Shan-Ping Mao,  Yuezhi Mao,  
 N. Mardirossian,  A. V. Marenich,  T. Markovich,  L. A. Martinez-Martinez,  
 S. A. Maurer,  N. J. Mayhall,  S. C. McKenzie,  J.-M. Mewes,  P. Morgante,  
 A. F. Morrison,  J. W. Mullinax,  K. Nanda,  T. S. Nguyen-Beck,  
 R. Olivares-Amaya,  K. J. Oosterbaan,  J. A. Parkhill,  S. K. Paul,  
 F. Pavosevic,  Zheng Pei,  T. M. Perrine,  F. Plasser,  P. Pokhilko,  
 S. Prager,  A. Prociuk,  E. Ramos,  B. Rana,  D. R. Rehn,  F. Rob,  
 E. Rossomme,  M. Scheurer,  M. Schneider,  N. Sergueev,  S. M. Sharada,  
 S. Sharma,  W. Skomorowski,  D. W. Small,  T. Stauch,  C. J. Stein,  
 T. Stein,  Yu-Chuan Su,  S. P. Veccham,  Zhen Tao,  A. J. W. Thom,  
 A. Tkatchenko,  T. Tsuchimochi,  N. M. Tubman,  L. Vogt,  M. L. Vidal,  
 O. Vydrov,  M. A. Watson,  J. Wenzel,  M. de Wergifosse,  T. A. Wesolowski,  
 A. White,  J. Witte,  A. Yamada,  Jun Yang,  K. Yao,  S. Yeganeh,  
 S. R. Yost,  Zhi-Qiang You,  A. Zech,  Igor Ying Zhang,  Xing Zhang,  
 Yan Zhao,  Ying Zhu,  B. R. Brooks,  G. K. L. Chan,  C. J. Cramer,  
 M. S. Gordon,  W. J. Hehre,  A. Klamt,  M. W. Schmidt,  C. D. Sherrill,  
 D. G. Truhlar,  A. Aspuru-Guzik,  R. Baer,  A. T. Bell,  N. A. Besley,  
 Jeng-Da Chai,  A. E. DePrince, III,  R. A. DiStasio Jr.,  A. Dreuw,  
 B. D. Dunietz,  T. R. Furlani,  Chao-Ping Hsu,  Yousung Jung,  Jing Kong,  
 D. S. Lambrecht,  WanZhen Liang,  C. Ochsenfeld,  V. A. Rassolov,  
 L. V. Slipchenko,  J. E. Subotnik,  T. Van Voorhis,  J. M. Herbert,  
 A. I. Krylov,  P. M. W. Gill,  M. Head-Gordon

 Contributors to earlier versions of Q-Chem not listed above: 
 R. D. Adamson,  B. Austin,  J. Baker,  G. J. O. Beran,  K. Brandhorst,  
 S. T. Brown,  E. F. C. Byrd,  A. K. Chakraborty,  C.-L. Cheng,  
 Siu Hung Chien,  D. M. Chipman,  D. L. Crittenden,  H. Dachsel,  
 R. J. Doerksen,  A. D. Dutoi,  L. Fusti-Molnar,  W. A. Goddard III,  
 A. Golubeva-Zadorozhnaya,  S. R. Gwaltney,  G. Hawkins,  A. Heyden,  
 S. Hirata,  G. Kedziora,  F. J. Keil,  C. Kelley,  Jihan Kim,  R. A. King,  
 R. Z. Khaliullin,  P. P. Korambath,  W. Kurlancheek,  A. M. Lee,  M. S. Lee,  
 S. V. Levchenko,  Ching Yeh Lin,  D. Liotard,  R. C. Lochan,  I. Lotan,  
 P. E. Maslen,  N. Nair,  D. P. O'Neill,  D. Neuhauser,  E. Neuscamman,  
 C. M. Oana,  R. Olson,  B. Peters,  R. Peverati,  P. A. Pieniazek,  
 Y. M. Rhee,  J. Ritchie,  M. A. Rohrdanz,  E. Rosta,  N. J. Russ,  
 H. F. Schaefer III,  N. E. Schultz,  N. Shenvi,  A. C. Simmonett,  A. Sodt,  
 D. Stuck,  K. S. Thanthiriwatte,  V. Vanovschi,  Tao Wang,  A. Warshel,  
 C. F. Williams,  Q. Wu,  X. Xu,  W. Zhang

 Please cite Q-Chem as follows:
 Y. Shao et al., Mol. Phys. 113, 184-215 (2015)
 DOI: 10.1080/00268976.2014.952696

 Q-Chem 5.3.2 for Intel X86 EM64T Linux

 Parts of Q-Chem use Armadillo 9.800.1 (Horizon Scraper).
 http://arma.sourceforge.net/

Compilation information
-----------------------

 SVN revision             | 35976
 SVN branch               | trunk
 Last SVN revision        | 35971
 Last SVN author          | tarek.scheele
 Hostname                 | osmium
 User                     | eric
 System                   | Linux-5.8.14-arch1-1
 Processor                | x86_64
 Compiler                 | GNU
 C compiler version       | 9.3.0
 CXX compiler version     | 9.3.0
 Fortran compiler version | 9.3.0
 Configuration time       | 2021-02-25 00:06:41


 Q-Chem begins on Thu Feb 25 00:18:56 2021  

Host: osmium
0

     Scratch files written to /tmp/qchem/qchem3313866//
Processing $rem in /home/eric/data/opt/apps/qchem/archive/r35971-g9.3.0-openblas/config/preferences:
Processing $rem in /home/eric/.qchemrc:
Symmetry turned off for PCM/SM12/SMD calculation

 Q-Chem warning in module libgen/rem_setup.C, line 2996:

 Neither GIA nor STOLL is specified by user. Use STOLL as the default


Checking the input file for inconsistencies... 	...done.

--------------------------------------------------------------
User input:
--------------------------------------------------------------
$molecule
-2 1
--
2 1
Mg       -0.0189445819    0.0168856118    0.0029552556
--
-4 1
O         0.0059357732    0.0539462402    2.0666953554
C         1.1192677168    0.0565124029    2.6707956290
O         1.2573714505    0.0395244414    3.9053082702
C         2.3884653211    0.1278723578    1.8240492753
H         3.1314435353   -0.5492127077    2.2533000325
H         2.7767185111    1.1399567901    1.9619064517
N         2.1959491132   -0.1350066786    0.3964608780
C         2.7399855870    0.9263867367   -0.4406785973
H         2.8099384384    0.5688976476   -1.4702186279
H         3.7421857655    1.2387509233   -0.1326537005
C         2.5897052603   -1.4944006285    0.0129942865
H         2.6749552922   -1.5336926682   -1.0739775698
H         3.5697888367   -1.7626000133    0.4232645051
C         1.5535070376   -2.5061048344    0.4841153080
H         1.4573549177   -2.4562572045    1.5697776586
H         1.8934956444   -3.5174141170    0.2341259076
N         0.2426874615   -2.2169078213   -0.1065384835
C        -0.8986497874   -2.7109933035    0.6529204644
H        -0.6719353043   -2.6464020709    1.7193064090
H        -1.1376935237   -3.7548077148    0.4292616747
C         0.1689683890   -2.5815163035   -1.5231226018
H        -0.8081969643   -3.0209737048   -1.7379240610
H         0.9132956900   -3.3412529777   -1.7746027711
C         0.3135749725   -1.4133154654   -2.4968563041
O         0.5092072377   -1.6863795543   -3.6927709236
O         0.1881693623   -0.2414664394   -2.0325203989
C         1.8191836002    2.1528535142   -0.4809782972
O         2.3167054138    3.2405970779   -0.8091789340
O         0.5895630873    1.9703752935   -0.2125263301
C        -2.1472787881   -1.8468625277    0.4343522829
O        -3.2537365269   -2.3577093572    0.6653267987
O        -1.9679111967   -0.6429723725    0.0657648319
$end

$rem
 jobtype = eda
 method = wb97x-d
 basis = def2-tzvp
 mem_static = 1000
 mem_total = 16000
 solvent_method = smd
$end
--------------------------------------------------------------
 ----------------------------------------------------------------
             Standard Nuclear Orientation (Angstroms)
    I     Atom           X                Y                Z
 ----------------------------------------------------------------
    1      Mg     -0.0189445819     0.0168856118     0.0029552556
    2      O       0.0059357732     0.0539462402     2.0666953554
    3      C       1.1192677168     0.0565124029     2.6707956290
    4      O       1.2573714505     0.0395244414     3.9053082702
    5      C       2.3884653211     0.1278723578     1.8240492753
    6      H       3.1314435353    -0.5492127077     2.2533000325
    7      H       2.7767185111     1.1399567901     1.9619064517
    8      N       2.1959491132    -0.1350066786     0.3964608780
    9      C       2.7399855870     0.9263867367    -0.4406785973
   10      H       2.8099384384     0.5688976476    -1.4702186279
   11      H       3.7421857655     1.2387509233    -0.1326537005
   12      C       2.5897052603    -1.4944006285     0.0129942865
   13      H       2.6749552922    -1.5336926682    -1.0739775698
   14      H       3.5697888367    -1.7626000133     0.4232645051
   15      C       1.5535070376    -2.5061048344     0.4841153080
   16      H       1.4573549177    -2.4562572045     1.5697776586
   17      H       1.8934956444    -3.5174141170     0.2341259076
   18      N       0.2426874615    -2.2169078213    -0.1065384835
   19      C      -0.8986497874    -2.7109933035     0.6529204644
   20      H      -0.6719353043    -2.6464020709     1.7193064090
   21      H      -1.1376935237    -3.7548077148     0.4292616747
   22      C       0.1689683890    -2.5815163035    -1.5231226018
   23      H      -0.8081969643    -3.0209737048    -1.7379240610
   24      H       0.9132956900    -3.3412529777    -1.7746027711
   25      C       0.3135749725    -1.4133154654    -2.4968563041
   26      O       0.5092072377    -1.6863795543    -3.6927709236
   27      O       0.1881693623    -0.2414664394    -2.0325203989
   28      C       1.8191836002     2.1528535142    -0.4809782972
   29      O       2.3167054138     3.2405970779    -0.8091789340
   30      O       0.5895630873     1.9703752935    -0.2125263301
   31      C      -2.1472787881    -1.8468625277     0.4343522829
   32      O      -3.2537365269    -2.3577093572     0.6653267987
   33      O      -1.9679111967    -0.6429723725     0.0657648319
 ----------------------------------------------------------------
 Nuclear Repulsion Energy =        2049.97052927 hartrees
 There are       82 alpha and       82 beta electrons
 Requested basis set is def2-TZVP
 There are 280 shells and 724 basis functions

 Total QAlloc Memory Limit  16000 MB
 Mega-Array Size       978 MB
 MEM_STATIC part      1000 MB

 Citation of the SMD model:
 Marenich, A.V.; Cramer, C.J.; Truhlar, D.G.
 J. Phys. Chem. B 2009, 113, 6378-6396.
 iSolventCode=           1
 Solvent: water                                                           

 vradii
            1           2           3           4           5           6
    1   2.0414000   1.5200000   1.8500000   1.5200000   1.8500000   1.2000000
            7           8           9          10          11          12
    1   1.2000000   1.8900000   1.8500000   1.2000000   1.2000000   1.8500000
           13          14          15          16          17          18
    1   1.2000000   1.2000000   1.8500000   1.2000000   1.2000000   1.8900000
           19          20          21          22          23          24
    1   1.8500000   1.2000000   1.2000000   1.8500000   1.2000000   1.2000000
           25          26          27          28          29          30
    1   1.8500000   1.5200000   1.5200000   1.8500000   1.5200000   1.5200000
           31          32          33
    1   1.8500000   1.5200000   1.5200000
 Changing PCM_VDW_RADII to SMD_RADIUS
 Discretize the solute cavity surface with Lebedev spheres
	Using 110 Lebedev grid points for each H atom
	Using 194 Lebedev grid points for other atoms
	Atomic van der Waals radii will be scaled by 1.20
 Remove points where switching function is < 1.0e-08
 Keep 2383 surface tesserae and discard 3011 interior tesserae
 Molecular Surface Area = 262.816 Angst**2
 A cutoff of  1.0D-11 yielded  29292 shell pairs
 There are    190478 function pairs (    243960 Cartesian)
 Smallest overlap matrix eigenvalue = 7.78E-05

 Scale SEOQF with 1.000000e-01/1.000000e-01/1.000000e-01

 Standard Electronic Orientation quadrupole field applied
 Nucleus-field energy     =     0.0000000032 hartrees

 -----------------------------------------------------------------------
  General SCF calculation program by
  Eric Jon Sundstrom, Paul Horn, Yuezhi Mao, Dmitri Zuev, Alec White,
  David Stuck, Shaama M.S., Shane Yost, Joonho Lee, David Small,
  Daniel Levine, Susi Lehtola, Hugh Burton, Evgeny Epifanovsky,
  Bang C. Huynh
 -----------------------------------------------------------------------
================================================================
                 ALMO-EDA with the EDA2 driver                  
================================================================
 The second-generation ALMO-EDA (for DFT):                      
 P. R. Horn, Y. Mao and M. Head-Gordon, PCCP, 18, 23067 (2016)  
 Decomposition of the frozen energy:                            
 P. R. Horn, Y. Mao and M. Head-Gordon, JCP, 144, 114107 (2016) 
 Incorporation of implicit solvents:                            
 Y. Mao, M. Loipersberger et al. Chem. Sci., 12, 1398 (2021)    
Using eda2 option set 2
Option set summary: Frozen orbital wavefunction, initial wavefunction decomposition, and traditional AO-based POL.
--------------------------------
Printing EDA Options
--------------------------------
eda_child_super_basis      0
fragmo_guess_mode          0
child_mp                   0
child_mp_orders            0
cls_elec                   1
cls_disp                   0
scfmi_mode                 1
scfmi_occs                 0
scfmi_virts                0
frz_relax                  0
frz_relax_method           0
dc_pen_start               0
dc_pen_conv                0
dc_pen_increment           0
dc_pen_steps               0
dc_pen_thresh_factor       0
dc_pen_pre_newton_thresh   0
frz_ortho_decomp           1
frz_ortho_decomp_conv      6
plot_mo_ortho_frz          0
frgm_method                2
scfmi_freeze_ss            0
separate_rehyb             0
plot_diff_den              0
eda_nocv                   0
eda_vct_relax              1
disp_free_x                0
disp_free_c                0
eda_bsse                   0
eda_pct_a                  1
eda_covp                   0
--------------------------------
Attempting to make child job directory: /tmp/qchem/qchem3313866//Frg1/
Attempting to make child job directory: /tmp/qchem/qchem3313866//Frg2/
Creating input file /tmp/qchem/qchem3313866/Frg1.input
using default PutDataFrgm: nothing
calling putenv with: QCSCRATCH=/tmp/qchem/qchem3313866/ 
Spawning Job For Fragment 0
Done Job For Fragment 0
calling putenv with: QCSCRATCH=/tmp/qchem 
calling putenv with: QCTHREADS=4 
Creating input file /tmp/qchem/qchem3313866/Frg2.input
using default PutDataFrgm: nothing
calling putenv with: QCSCRATCH=/tmp/qchem/qchem3313866/ 
Spawning Job For Fragment 1
Done Job For Fragment 1
calling putenv with: QCSCRATCH=/tmp/qchem 
calling putenv with: QCTHREADS=4 
Doing General SCFMI
 Exchange:     0.2220 Hartree-Fock + 1.0000 wB97X-D + LR-HF
 Correlation:  1.0000 wB97X-D
 Using SG-2 standard quadrature grid
 Dispersion:   Grimme D
performing fock build before subrot guess so that all methods have access
Printing subrot_rss_gen Method Specification:
Occupied Subspace Method is 0
Virtual Subspace Method is 0
Energy of the unrelaxed supersystem initial determinant -1299.913038499677
performing fock build before subrot guess so that all methods have access
Printing subrot_rss_gen Method Specification:
Occupied Subspace Method is 0
Virtual Subspace Method is 0
Energy of the unrelaxed supersystem initial determinant w/ solvent -1300.254932624263
write pseudocanon occs and virts to disk
write pseudocanon orbital energies to disk
Tolerance of ortho_decomp_scf: 1.00e-06
GDM subspace size: 20
Beginning the Orthogonal Decomposition of the Initial Supersystem Wavefunction
    1   -1298.1054271347      2.77e-01     ortho_decomp Preconditoned Steepest Descent
    2   -1298.1507172492      2.50e-03     ortho_decomp BFGS Step
    3   -1298.1507371493      1.09e-04     ortho_decomp BFGS Step
    4   -1298.1507371593      1.57e-06     ortho_decomp BFGS Step
    5   -1298.1507371593      2.31e-08     ortho_decomp 00000 Convergence criterion met
 Hartree-Fock
 Hartree-Fock
 Hartree-Fock
Doing General SCFMI
 Exchange:     0.2220 Hartree-Fock + 1.0000 wB97X-D + LR-HF
 Correlation:  1.0000 wB97X-D
 Using SG-2 standard quadrature grid
 Dispersion:   Grimme D
performing fock build at end of subrot_r(subrot) constructor so that all methods have access
<S^2> of initial wavefunction before polarization iterations 0.0000000000
Beginning iterations for the determination of the polarized wavefunction
Energy prior to optimization (guess energy) = -1300.254932624262
Begin Timing: Total SCF Calculation
begin iterations for algorithm: DIIS         
the SCF tolerance is set to 1.00e-08
    1   -1300.2549326243      5.51e-04     00000 
    2   -1300.3189656439      3.88e-04     00000 
    3   -1300.3445300940      1.50e-04     00000 
    4   -1300.3479104627      4.05e-05     00000 
    5   -1300.3481814619      1.67e-05     00000 
    6   -1300.3482307580      8.43e-06     00000 
    7   -1300.3482447578      2.98e-06     00000 
    8   -1300.3482463083      1.47e-06     00000 
    9   -1300.3482467875      6.15e-07     00000 
   10   -1300.3482468947      3.53e-07     00000 
   11   -1300.3482469373      2.22e-07     00000 
   12   -1300.3482469567      1.49e-07     00000 
   13   -1300.3482469645      9.13e-08     00000 
   14   -1300.3482469649      3.91e-08     00000 
   15   -1300.3482469614      2.37e-08     00000 
   16   -1300.3482469608      1.14e-08     00000 
   17   -1300.3482469627      5.78e-09     00000 Convergence criterion met
write pseudocanon occs and virts to disk
write pseudocanon orbital energies to disk
Timing for Total SCF: 1417.00s (wall), 5410.77s (cpu)
<S^2> of polarized wavefunction after polarization iterations 0.0000000000
relaxing scfmi constraint to allow all rotations in the entire AO span
Doing General SCFMI
 Exchange:     0.2220 Hartree-Fock + 1.0000 wB97X-D + LR-HF
 Correlation:  1.0000 wB97X-D
 Using SG-2 standard quadrature grid
 Dispersion:   Grimme D
performing fock build at end of subrot_r(subrot) constructor so that all methods have access
<S^2> of polarized wavefunction before ct-allowed iterations 0.0000000000
Beginning iterations for the determination of the CT-Allowed wavefunction
Energy prior to optimization (guess energy) = -1300.348246973193
Begin Timing: Total SCF Calculation
begin iterations for algorithm: DIIS         
the SCF tolerance is set to 1.00e-08
    1   -1300.3482469732      2.91e-04     00000 
    2   -1300.3657839295      3.53e-05     00000 
    3   -1300.3661042188      1.40e-05     00000 
    4   -1300.3661334511      4.89e-06     00000 
    5   -1300.3661371627      2.36e-06     00000 
    6   -1300.3661381935      2.53e-07     00000 
    7   -1300.3661382146      1.41e-07     00000 
    8   -1300.3661382165      5.16e-08     00000 
    9   -1300.3661382110      1.74e-08     00000 
   10   -1300.3661382044      4.78e-09     00000 Convergence criterion met
write pseudocanon occs and virts to disk
write pseudocanon orbital energies to disk
Timing for Total SCF: 790.00s (wall), 3013.69s (cpu)
<S^2> of ct_allowed wavefunction after ct-allowed iterations 0.0000000000
Perturbative CTA
Number of subspaces: 2
Appending the orthogonal complement of the current SCFMI subspace
Number of subspaces in CTA becomes 2
Doing General SCFMI
 Exchange:     0.2220 Hartree-Fock + 1.0000 wB97X-D + LR-HF
 Correlation:  1.0000 wB97X-D
 Using SG-2 standard quadrature grid
 Dispersion:   Grimme D
performing fock build at end of subrot_r(subrot) constructor so that all methods have access
PCT method is RS
RS amplitude (X) obtained in 3 iterations
X in RS PT satisfies the quadratic equation

================================
        Results of EDA2         
================================
Basic EDA Quantities
--------------------
Fragment Energies (Ha):
1 -199.7515317187
2-1100.2839277346
--------------------
  E_prp (kJ/mol) = 0.0000
  E_sol (kJ/mol) = 3668.8799
  E_frz (kJ/mol) = -4201.9245 (unscreened)
 [E_frz(solv) = -533.0446 kJ/mol (unscreened FRZ + SOL)]
  E_pol (kJ/mol) = -244.9997
  E_vct (kJ/mol) = -46.9740
  E_int (kJ/mol) = -825.0183
--------------------


Decomposition of frozen interaction energy
--------------------
  ------------------------------
  Classical Frozen Decomposition (unscreened):
  ------------------------------
     E_cls_elec  (CLS ELEC)  (kJ/mol) = -4639.2163
     E_mod_pauli (MOD PAULI) (kJ/mol) = 413.5747 (FRZ - CLS ELEC - DISP)
     E_disp      (DISP)      (kJ/mol) = 23.7172
  ------------------------------
  Classical Decomposition Terms with Solvent Contributions:
  ------------------------------
     E_sol_elec              (kJ/mol) = 3669.1061
     E_cls_elec(solv)        (kJ/mol) = -970.1102 (CLS ELEC + SOL ELEC)
     E_sol_nonelec           (kJ/mol) = -0.2262
     E_mod_pauli(solv)       (kJ/mol) = 413.3484 (MOD PAULI + SOL non-ELEC)
  --------------------
  ------------------------------
  Orthogonal Frozen Decomposition (unscreened):
  ------------------------------
     E_elec   (ELEC)   (kJ/mol) = -4589.5229
     E_pauli  (PAULI)  (kJ/mol) = 363.8812
     E_disp   (DISP)   (kJ/mol) = 23.7172
  ------------------------------
  Orthogonal Decomposition Terms with Solvent Contribution:
  ------------------------------
     E_sol_elec        (kJ/mol) = 3669.1061
     E_elec(solv)      (kJ/mol) = -920.4168 (ELEC + SOL ELEC)
     E_sol_nonelec     (kJ/mol) = -0.2262
     E_pauli(solv)     (kJ/mol) = 363.6550 (PAULI + SOL non-ELEC)
  --------------------
--------------------

--------------------
Perturbative CT Analysis:
--------------------
  E_pct (kJ/mol) = -42.0736
  E_HO  (kJ/mol) = -4.9004 (VCT - PCT) 
  ---------------  
  PCT Energy lowering  (row to column, kJ/mol)
            1           2    
    1   -0.000094   -0.681365
    2  -41.392170    0.000032
  PCT Charge displacement (row to column, me-)
            1           2    
    1   -0.022605    0.041603
    2   13.488985   -4.108204
--------------------

Simplified EDA Summary (kJ/mol)
--------------------
 PREPARATION      0.0000
 SOLVATION        3668.8799
 FROZEN           -4201.9245 (unscreened ELEC + PAULI + DISP)
[ELEC + PAULI = -4225.6417, DISP = 23.7172]
 POLARIZATION    -244.9997
 CHARGE TRANSFER -46.9740
 TOTAL           -825.0183     (PRP + SOL + FRZ + POL + CT)
--------------------

 --------------------------------------------------------------

                    Orbital Energies (a.u.)
 --------------------------------------------------------------

 Alpha MOs
 -- Occupied --
-46.8820 -19.2158 -19.2158 -19.2145 -19.2145 -19.2053 -19.2052 -19.2036
-19.2035 -14.4459 -14.4458 -10.3878 -10.3878 -10.3859 -10.3858 -10.3059
-10.3059 -10.3059 -10.3057 -10.3056 -10.3055  -3.1437  -1.8761  -1.8746
 -1.8739  -1.1570  -1.1546  -1.1535  -1.1522  -1.0670  -1.0629  -1.0617
 -1.0600  -1.0445  -1.0259  -0.8630  -0.8320  -0.8299  -0.7859  -0.7336
 -0.6817  -0.6289  -0.6232  -0.6209  -0.6169  -0.5984  -0.5950  -0.5808
 -0.5670  -0.5636  -0.5589  -0.5389  -0.5374  -0.5326  -0.5318  -0.5214
 -0.5197  -0.5162  -0.5088  -0.5024  -0.4927  -0.4898  -0.4755  -0.4566
 -0.4528  -0.4440  -0.4390  -0.4238  -0.3811  -0.3740  -0.3736  -0.3685
 -0.3673  -0.3628  -0.3577  -0.3550  -0.3547  -0.3541  -0.3443  -0.3425
 -0.3272  -0.3174
 -- Virtual --
  0.0861   0.0996   0.1050   0.1064   0.1140   0.1343   0.1353   0.1409
  0.1634   0.1643   0.1705   0.1745   0.1799   0.1989   0.1992   0.2056
  0.2101   0.2106   0.2165   0.2178   0.2241   0.2400   0.2499   0.2514
  0.2592   0.2635   0.2683   0.2779   0.2844   0.2937   0.3013   0.3077
  0.3117   0.3165   0.3228   0.3350   0.3374   0.3479   0.3482   0.3566
  0.3598   0.3680   0.3703   0.3706   0.3862   0.3919   0.3944   0.3960
  0.3974   0.4192   0.4194   0.4206   0.4304   0.4379   0.4415   0.4424
  0.4491   0.4497   0.4578   0.4629   0.4700   0.4768   0.4830   0.4846
  0.4965   0.4973   0.5031   0.5048   0.5118   0.5137   0.5178   0.5215
  0.5248   0.5304   0.5327   0.5363   0.5405   0.5503   0.5511   0.5580
  0.5588   0.5637   0.5679   0.5777   0.5797   0.5901   0.5951   0.5956
  0.6000   0.6135   0.6179   0.6223   0.6271   0.6374   0.6424   0.6453
  0.6459   0.6546   0.6593   0.6675   0.6767   0.6771   0.6890   0.6905
  0.6937   0.7052   0.7265   0.7307   0.7448   0.7464   0.7483   0.7517
  0.7606   0.7718   0.7779   0.7901   0.7981   0.8078   0.8124   0.8220
  0.8299   0.8421   0.8438   0.8516   0.8696   0.8722   0.8747   0.8865
  0.8975   0.9006   0.9056   0.9240   0.9331   0.9395   0.9401   0.9528
  0.9676   0.9700   0.9764   0.9813   0.9843   1.0022   1.0109   1.0121
  1.0186   1.0314   1.0368   1.0447   1.0497   1.0579   1.0626   1.0820
  1.0826   1.0998   1.1093   1.1114   1.1207   1.1249   1.1311   1.1549
  1.1585   1.1642   1.1652   1.1802   1.1866   1.1984   1.2039   1.2172
  1.2277   1.2325   1.2398   1.2517   1.2552   1.2674   1.2827   1.2901
  1.3095   1.3129   1.3427   1.3551   1.3600   1.3694   1.3865   1.3901
  1.3967   1.4408   1.4515   1.4599   1.4654   1.4714   1.4735   1.4855
  1.5029   1.5077   1.5208   1.5610   1.5629   1.5776   1.5839   1.5902
  1.5936   1.5996   1.6144   1.6160   1.6180   1.6267   1.6283   1.6361
  1.6489   1.6506   1.6636   1.6707   1.6753   1.6760   1.6996   1.7155
  1.7198   1.7210   1.7242   1.7376   1.7482   1.7509   1.7543   1.7652
  1.7699   1.7768   1.7876   1.7977   1.8188   1.8198   1.8422   1.8597
  1.8618   1.8687   1.8700   1.9110   1.9360   1.9374   1.9537   1.9601
  1.9711   1.9827   1.9894   1.9914   1.9974   2.0101   2.0141   2.0242
  2.0341   2.0550   2.0613   2.0652   2.0817   2.0876   2.0945   2.1085
  2.1147   2.1273   2.1347   2.1492   2.1560   2.1605   2.1655   2.1758
  2.1764   2.1904   2.1959   2.2053   2.2086   2.2169   2.2200   2.2363
  2.2492   2.2538   2.2580   2.2625   2.2642   2.3018   2.3157   2.3289
  2.3303   2.3368   2.3404   2.3422   2.3702   2.3737   2.3754   2.3940
  2.4033   2.4071   2.4152   2.4285   2.4304   2.4555   2.4711   2.4822
  2.4953   2.5031   2.5051   2.5278   2.5334   2.5484   2.5498   2.5698
  2.5775   2.5813   2.5915   2.6167   2.6206   2.6357   2.6428   2.6484
  2.6531   2.6573   2.6931   2.7045   2.7095   2.7284   2.7326   2.7400
  2.7560   2.7606   2.7719   2.7758   2.7904   2.7928   2.8022   2.8213
  2.8303   2.8342   2.8384   2.8529   2.8559   2.8651   2.8749   2.8766
  2.8852   2.9009   2.9057   2.9351   2.9360   2.9408   2.9538   2.9596
  2.9627   2.9710   3.0160   3.0311   3.0408   3.0482   3.0548   3.0655
  3.0812   3.0901   3.0922   3.1019   3.1095   3.1209   3.1218   3.1253
  3.1351   3.1506   3.1513   3.1654   3.1684   3.1693   3.1821   3.1852
  3.2003   3.2094   3.2174   3.2284   3.2316   3.2381   3.2404   3.2539
  3.2595   3.2808   3.2838   3.2882   3.2908   3.3082   3.3130   3.3188
  3.3266   3.3514   3.3551   3.3582   3.3640   3.3766   3.4040   3.4085
  3.4104   3.4203   3.4229   3.4244   3.4350   3.4360   3.4454   3.4530
  3.4562   3.4664   3.4746   3.4891   3.4923   3.5009   3.5098   3.5135
  3.5168   3.5320   3.5372   3.5470   3.5542   3.5705   3.5830   3.5953
  3.5991   3.6068   3.6120   3.6244   3.6314   3.6356   3.6364   3.6408
  3.6587   3.6671   3.6721   3.6811   3.6864   3.7048   3.7069   3.7305
  3.7559   3.7610   3.7748   3.7832   3.7992   3.8245   3.8302   3.8452
  3.8606   3.8802   3.9018   3.9351   3.9375   3.9493   3.9824   4.0101
  4.0145   4.0163   4.0256   4.0313   4.0343   4.0516   4.0795   4.0858
  4.0988   4.1091   4.1135   4.1319   4.1435   4.1736   4.1794   4.2047
  4.2075   4.2151   4.2564   4.2792   4.3051   4.3920   4.4024   4.4111
  4.4393   4.4738   4.4818   4.4969   4.5302   4.5371   4.5676   4.5776
  4.5798   4.6013   4.6256   4.6510   4.6619   4.6909   4.7060   4.7157
  4.7225   4.7560   4.7739   4.8407   4.8549   4.8895   4.8908   4.9443
  4.9963   5.0408   5.1677   5.1925   5.2254   5.2346   5.2474   5.2602
  5.2657   5.2669   5.2683   5.2752   5.2775   5.2827   5.2861   5.2893
  5.2913   5.2958   5.2963   5.3074   5.3095   5.3258   5.3633   5.3695
  5.3806   5.4170   5.4234   5.4316   5.4505   5.4612   5.4776   5.5038
  5.5153   5.5272   5.5409   5.5617   5.5976   5.6247   5.6377   5.6429
  5.6459   5.6540   5.6590   5.6591   5.6722   5.6757   5.7396   5.7441
  5.7476   5.7487   5.7790   5.7966   5.8593   5.8741   5.9425   5.9460
  5.9535   5.9699   6.0344   6.0360   6.1521   6.1543   6.1636   6.1749
  6.2090   6.2105   6.2317   6.2369   6.2553   6.2616   6.2694   6.2831
  6.3996   6.4496   6.4603   6.4618   6.4678   6.4806   6.4862   6.4948
  6.4971   6.5503   6.5591   6.5613   6.5635   6.5817   6.5850   6.5907
  6.5936   6.6290   6.6725   6.7292   6.7609   6.7885   6.7982   6.8240
  6.8673   6.8802   6.8833   6.8960   6.9056   6.9100   6.9230   6.9577
  6.9631   6.9717   6.9828   6.9847   7.0015   7.0810   7.0862   7.0923
  7.0992   7.1187   7.2423   7.2557   7.2668   7.2680   7.2743   7.2790
  7.3014   7.3037   7.3246   7.3380   7.3821   7.4471  22.6643  22.7020
 22.7333  22.7375  22.7647  22.7967  23.6128  23.6385  23.6462  23.6652
 32.9952  33.0294  44.0121  44.0127  44.0197  44.0312  44.0641  44.0935
 44.1586  44.1620
 --------------------------------------------------------------

          Ground-State Mulliken Net Atomic Charges

     Atom                 Charge (a.u.)
  ----------------------------------------
      1 Mg                    2.000000
      2 O                    -0.822467
      3 C                     0.449972
      4 O                    -0.619105
      5 C                    -0.164906
      6 H                     0.164046
      7 H                     0.175610
      8 N                    -0.610946
      9 C                    -0.180587
     10 H                     0.167235
     11 H                     0.156896
     12 C                    -0.069799
     13 H                     0.160767
     14 H                     0.159255
     15 C                    -0.075067
     16 H                     0.161431
     17 H                     0.159166
     18 N                    -0.616155
     19 C                    -0.174495
     20 H                     0.166362
     21 H                     0.156555
     22 C                    -0.160659
     23 H                     0.175315
     24 H                     0.163742
     25 C                     0.446503
     26 O                    -0.618477
     27 O                    -0.821482
     28 C                     0.479618
     29 O                    -0.609224
     30 O                    -0.834205
     31 C                     0.477827
     32 O                    -0.609151
     33 O                    -0.833575
  ----------------------------------------
  Sum of atomic charges =    -2.000000

 -----------------------------------------------------------------
                    Cartesian Multipole Moments
 -----------------------------------------------------------------
    Charge (ESU x 10^10)
                -9.6064
    Dipole Moment (Debye)
         X       8.0007      Y      -7.8094      Z       0.9626
       Tot      11.2215
    Quadrupole Moments (Debye-Ang)
        XX    -161.0300     XY     -39.6836     YY    -162.8813
        XZ       9.0356     YZ      -2.1955     ZZ    -215.4097
    Octopole Moments (Debye-Ang^2)
       XXX     -82.7194    XXY      90.4075    XYY     -89.3781
       YYY      83.9848    XXZ     -23.5977    XYZ      -5.3870
       YYZ      34.0742    XZZ    -132.4703    YZZ     116.8076
       ZZZ     -46.8103
    Hexadecapole Moments (Debye-Ang^3)
      XXXX   -2718.4228   XXXY    -732.2662   XXYY   -1093.7661
      XYYY    -723.1792   YYYY   -2800.5817   XXXZ      58.8674
      XXYZ      63.6006   XYYZ     104.8576   YYYZ       2.9768
      XXZZ    -841.9952   XYZZ    -105.9511   YYZZ    -893.9625
      XZZZ    -160.6559   YZZZ    -340.5879   ZZZZ   -3672.9023
 -----------------------------------------------------------------
Archival summary:
1\1\osmium\SP\ProcedureUnspecified\BasisUnspecified\g1821012(2-,1)\eric\ThuFeb2501:35:072021ThuFeb2501:35:072021\0\\#,ProcedureUnspecified,BasisUnspecified,\\-2,1\Mg\O,1,2.05739\C,2,1.27174,1,116.38\O,3,1.24033,2,124.717,1,170.363,0\C,3,1.53418,2,117.391,1,-7.45699,0\H,5,1.09208,3,105.984,2,95.8688,0\H,5,1.09401,3,109.206,2,-148.633,0\N,5,1.45717,3,111.92,2,-22.9477,0\C,8,1.4643,5,112.349,3,-77.8256,0\H,9,1.09273,8,109.632,5,8.03418,0\H,9,1.09303,8,111.163,5,-109.349,0\C,8,1.4663,5,115.137,3,151.328,0\H,12,1.09102,8,108.356,5,-34.3858,0\H,12,1.09582,8,111.664,5,83.3539,0\C,12,1.52289,8,110.626,5,-154.703,0\H,15,1.09105,12,109.721,8,-59.6524,0\H,15,1.09583,12,109.355,8,-177.025,0\N,15,1.46655,12,110.644,8,59.7116,0\C,18,1.45724,15,115.043,12,-155.283,0\H,19,1.09213,18,109.041,15,34.5669,0\H,19,1.09394,18,112.837,15,-84.8611,0\C,18,1.46461,15,112.671,12,74.1745,0\H,22,1.09276,18,109.588,15,140.408,0\H,22,1.09292,18,111.182,15,22.9292,0\C,9,1.52739,8,115.014,5,126.792,0\O,25,1.24233,9,117.332,8,167.785,0\O,25,1.26667,9,117.779,8,-13.9981,0\C,22,1.52767,18,114.921,15,-101.057,0\O,28,1.24219,22,117.417,18,166.859,0\O,28,1.26671,22,117.672,18,-15.067,0\C,19,1.53413,18,111.853,15,151.411,0\O,31,1.24039,19,117.873,18,158.111,0\O,31,1.27176,19,117.368,18,-23.8983,0\\\@

 Total job time:  4571.09s(wall), 15896.56s(cpu) 
 Thu Feb 25 01:35:07 2021

        *************************************************************
        *                                                           *
        *  Thank you very much for using Q-Chem.  Have a nice day.  *
        *                                                           *
        *************************************************************


